<?xml version="1.0"?> 
<VTKFile type="UnstructuredGrid"> 
   <UnstructuredGrid> 
      <Piece NumberOfPoints="6000"  NumberOfCells="1500">  
          <Points>  
             <DataArray type="Float64" NumberOfComponents="3" format="ascii">   
-500.0   0.0   0.0
-450.0   0.0   0.0
-500.0   30.0   0.0
-500.0   0.0   16.666666666666668
-450.0   0.0   0.0
-450.0   30.0   0.0
-500.0   30.0   0.0
-450.0   30.0   16.666666666666668
-500.0   0.0   16.666666666666668
-500.0   30.0   16.666666666666668
-450.0   30.0   16.666666666666668
-500.0   30.0   0.0
-500.0   0.0   16.666666666666668
-450.0   30.0   16.666666666666668
-450.0   0.0   16.666666666666668
-450.0   0.0   0.0
-500.0   0.0   16.666666666666668
-450.0   30.0   16.666666666666668
-450.0   0.0   0.0
-500.0   30.0   0.0
-500.0   0.0   16.666666666666668
-450.0   0.0   16.666666666666668
-500.0   30.0   16.666666666666668
-500.0   0.0   33.333333333333336
-450.0   0.0   16.666666666666668
-450.0   30.0   16.666666666666668
-500.0   30.0   16.666666666666668
-450.0   30.0   33.333333333333336
-500.0   0.0   33.333333333333336
-500.0   30.0   33.333333333333336
-450.0   30.0   33.333333333333336
-500.0   30.0   16.666666666666668
-500.0   0.0   33.333333333333336
-450.0   30.0   33.333333333333336
-450.0   0.0   33.333333333333336
-450.0   0.0   16.666666666666668
-500.0   0.0   33.333333333333336
-450.0   30.0   33.333333333333336
-450.0   0.0   16.666666666666668
-500.0   30.0   16.666666666666668
-500.0   0.0   33.333333333333336
-450.0   0.0   33.333333333333336
-500.0   30.0   33.333333333333336
-500.0   0.0   50.0
-450.0   0.0   33.333333333333336
-450.0   30.0   33.333333333333336
-500.0   30.0   33.333333333333336
-450.0   30.0   50.0
-500.0   0.0   50.0
-500.0   30.0   50.0
-450.0   30.0   50.0
-500.0   30.0   33.333333333333336
-500.0   0.0   50.0
-450.0   30.0   50.0
-450.0   0.0   50.0
-450.0   0.0   33.333333333333336
-500.0   0.0   50.0
-450.0   30.0   50.0
-450.0   0.0   33.333333333333336
-500.0   30.0   33.333333333333336
-500.0   30.0   0.0
-450.0   30.0   0.0
-500.0   60.0   0.0
-500.0   30.0   16.666666666666668
-450.0   30.0   0.0
-450.0   60.0   0.0
-500.0   60.0   0.0
-450.0   60.0   16.666666666666668
-500.0   30.0   16.666666666666668
-500.0   60.0   16.666666666666668
-450.0   60.0   16.666666666666668
-500.0   60.0   0.0
-500.0   30.0   16.666666666666668
-450.0   60.0   16.666666666666668
-450.0   30.0   16.666666666666668
-450.0   30.0   0.0
-500.0   30.0   16.666666666666668
-450.0   60.0   16.666666666666668
-450.0   30.0   0.0
-500.0   60.0   0.0
-500.0   30.0   16.666666666666668
-450.0   30.0   16.666666666666668
-500.0   60.0   16.666666666666668
-500.0   30.0   33.333333333333336
-450.0   30.0   16.666666666666668
-450.0   60.0   16.666666666666668
-500.0   60.0   16.666666666666668
-450.0   60.0   33.333333333333336
-500.0   30.0   33.333333333333336
-500.0   60.0   33.333333333333336
-450.0   60.0   33.333333333333336
-500.0   60.0   16.666666666666668
-500.0   30.0   33.333333333333336
-450.0   60.0   33.333333333333336
-450.0   30.0   33.333333333333336
-450.0   30.0   16.666666666666668
-500.0   30.0   33.333333333333336
-450.0   60.0   33.333333333333336
-450.0   30.0   16.666666666666668
-500.0   60.0   16.666666666666668
-500.0   30.0   33.333333333333336
-450.0   30.0   33.333333333333336
-500.0   60.0   33.333333333333336
-500.0   30.0   50.0
-450.0   30.0   33.333333333333336
-450.0   60.0   33.333333333333336
-500.0   60.0   33.333333333333336
-450.0   60.0   50.0
-500.0   30.0   50.0
-500.0   60.0   50.0
-450.0   60.0   50.0
-500.0   60.0   33.333333333333336
-500.0   30.0   50.0
-450.0   60.0   50.0
-450.0   30.0   50.0
-450.0   30.0   33.333333333333336
-500.0   30.0   50.0
-450.0   60.0   50.0
-450.0   30.0   33.333333333333336
-500.0   60.0   33.333333333333336
-500.0   60.0   0.0
-450.0   60.0   0.0
-500.0   90.0   0.0
-500.0   60.0   16.666666666666668
-450.0   60.0   0.0
-450.0   90.0   0.0
-500.0   90.0   0.0
-450.0   90.0   16.666666666666668
-500.0   60.0   16.666666666666668
-500.0   90.0   16.666666666666668
-450.0   90.0   16.666666666666668
-500.0   90.0   0.0
-500.0   60.0   16.666666666666668
-450.0   90.0   16.666666666666668
-450.0   60.0   16.666666666666668
-450.0   60.0   0.0
-500.0   60.0   16.666666666666668
-450.0   90.0   16.666666666666668
-450.0   60.0   0.0
-500.0   90.0   0.0
-500.0   60.0   16.666666666666668
-450.0   60.0   16.666666666666668
-500.0   90.0   16.666666666666668
-500.0   60.0   33.333333333333336
-450.0   60.0   16.666666666666668
-450.0   90.0   16.666666666666668
-500.0   90.0   16.666666666666668
-450.0   90.0   33.333333333333336
-500.0   60.0   33.333333333333336
-500.0   90.0   33.333333333333336
-450.0   90.0   33.333333333333336
-500.0   90.0   16.666666666666668
-500.0   60.0   33.333333333333336
-450.0   90.0   33.333333333333336
-450.0   60.0   33.333333333333336
-450.0   60.0   16.666666666666668
-500.0   60.0   33.333333333333336
-450.0   90.0   33.333333333333336
-450.0   60.0   16.666666666666668
-500.0   90.0   16.666666666666668
-500.0   60.0   33.333333333333336
-450.0   60.0   33.333333333333336
-500.0   90.0   33.333333333333336
-500.0   60.0   50.0
-450.0   60.0   33.333333333333336
-450.0   90.0   33.333333333333336
-500.0   90.0   33.333333333333336
-450.0   90.0   50.0
-500.0   60.0   50.0
-500.0   90.0   50.0
-450.0   90.0   50.0
-500.0   90.0   33.333333333333336
-500.0   60.0   50.0
-450.0   90.0   50.0
-450.0   60.0   50.0
-450.0   60.0   33.333333333333336
-500.0   60.0   50.0
-450.0   90.0   50.0
-450.0   60.0   33.333333333333336
-500.0   90.0   33.333333333333336
-500.0   90.0   0.0
-450.0   90.0   0.0
-500.0   120.0   0.0
-500.0   90.0   16.666666666666668
-450.0   90.0   0.0
-450.0   120.0   0.0
-500.0   120.0   0.0
-450.0   120.0   16.666666666666668
-500.0   90.0   16.666666666666668
-500.0   120.0   16.666666666666668
-450.0   120.0   16.666666666666668
-500.0   120.0   0.0
-500.0   90.0   16.666666666666668
-450.0   120.0   16.666666666666668
-450.0   90.0   16.666666666666668
-450.0   90.0   0.0
-500.0   90.0   16.666666666666668
-450.0   120.0   16.666666666666668
-450.0   90.0   0.0
-500.0   120.0   0.0
-500.0   90.0   16.666666666666668
-450.0   90.0   16.666666666666668
-500.0   120.0   16.666666666666668
-500.0   90.0   33.333333333333336
-450.0   90.0   16.666666666666668
-450.0   120.0   16.666666666666668
-500.0   120.0   16.666666666666668
-450.0   120.0   33.333333333333336
-500.0   90.0   33.333333333333336
-500.0   120.0   33.333333333333336
-450.0   120.0   33.333333333333336
-500.0   120.0   16.666666666666668
-500.0   90.0   33.333333333333336
-450.0   120.0   33.333333333333336
-450.0   90.0   33.333333333333336
-450.0   90.0   16.666666666666668
-500.0   90.0   33.333333333333336
-450.0   120.0   33.333333333333336
-450.0   90.0   16.666666666666668
-500.0   120.0   16.666666666666668
-500.0   90.0   33.333333333333336
-450.0   90.0   33.333333333333336
-500.0   120.0   33.333333333333336
-500.0   90.0   50.0
-450.0   90.0   33.333333333333336
-450.0   120.0   33.333333333333336
-500.0   120.0   33.333333333333336
-450.0   120.0   50.0
-500.0   90.0   50.0
-500.0   120.0   50.0
-450.0   120.0   50.0
-500.0   120.0   33.333333333333336
-500.0   90.0   50.0
-450.0   120.0   50.0
-450.0   90.0   50.0
-450.0   90.0   33.333333333333336
-500.0   90.0   50.0
-450.0   120.0   50.0
-450.0   90.0   33.333333333333336
-500.0   120.0   33.333333333333336
-500.0   120.0   0.0
-450.0   120.0   0.0
-500.0   150.0   0.0
-500.0   120.0   16.666666666666668
-450.0   120.0   0.0
-450.0   150.0   0.0
-500.0   150.0   0.0
-450.0   150.0   16.666666666666668
-500.0   120.0   16.666666666666668
-500.0   150.0   16.666666666666668
-450.0   150.0   16.666666666666668
-500.0   150.0   0.0
-500.0   120.0   16.666666666666668
-450.0   150.0   16.666666666666668
-450.0   120.0   16.666666666666668
-450.0   120.0   0.0
-500.0   120.0   16.666666666666668
-450.0   150.0   16.666666666666668
-450.0   120.0   0.0
-500.0   150.0   0.0
-500.0   120.0   16.666666666666668
-450.0   120.0   16.666666666666668
-500.0   150.0   16.666666666666668
-500.0   120.0   33.333333333333336
-450.0   120.0   16.666666666666668
-450.0   150.0   16.666666666666668
-500.0   150.0   16.666666666666668
-450.0   150.0   33.333333333333336
-500.0   120.0   33.333333333333336
-500.0   150.0   33.333333333333336
-450.0   150.0   33.333333333333336
-500.0   150.0   16.666666666666668
-500.0   120.0   33.333333333333336
-450.0   150.0   33.333333333333336
-450.0   120.0   33.333333333333336
-450.0   120.0   16.666666666666668
-500.0   120.0   33.333333333333336
-450.0   150.0   33.333333333333336
-450.0   120.0   16.666666666666668
-500.0   150.0   16.666666666666668
-500.0   120.0   33.333333333333336
-450.0   120.0   33.333333333333336
-500.0   150.0   33.333333333333336
-500.0   120.0   50.0
-450.0   120.0   33.333333333333336
-450.0   150.0   33.333333333333336
-500.0   150.0   33.333333333333336
-450.0   150.0   50.0
-500.0   120.0   50.0
-500.0   150.0   50.0
-450.0   150.0   50.0
-500.0   150.0   33.333333333333336
-500.0   120.0   50.0
-450.0   150.0   50.0
-450.0   120.0   50.0
-450.0   120.0   33.333333333333336
-500.0   120.0   50.0
-450.0   150.0   50.0
-450.0   120.0   33.333333333333336
-500.0   150.0   33.333333333333336
-450.0   0.0   0.0
-400.0   0.0   0.0
-450.0   30.0   0.0
-450.0   0.0   16.666666666666668
-400.0   0.0   0.0
-400.0   30.0   0.0
-450.0   30.0   0.0
-400.0   30.0   16.666666666666668
-450.0   0.0   16.666666666666668
-450.0   30.0   16.666666666666668
-400.0   30.0   16.666666666666668
-450.0   30.0   0.0
-450.0   0.0   16.666666666666668
-400.0   30.0   16.666666666666668
-400.0   0.0   16.666666666666668
-400.0   0.0   0.0
-450.0   0.0   16.666666666666668
-400.0   30.0   16.666666666666668
-400.0   0.0   0.0
-450.0   30.0   0.0
-450.0   0.0   16.666666666666668
-400.0   0.0   16.666666666666668
-450.0   30.0   16.666666666666668
[...]
          <PointData>  
             <DataArray type="Float64" NumberOfComponents="3" Name="Strains" format="ascii">   
-6.308032811912246e-05   0.0   -4.14868802866494e-05
-6.308032811912246e-05   0.0   -4.14868802866494e-05
-6.308032811912246e-05   0.0   -4.14868802866494e-05
-6.308032811912246e-05   0.0   -4.14868802866494e-05
-4.0130614229644974e-05   6.976526895806088e-06   9.485589999633074e-07
-4.0130614229644974e-05   6.976526895806088e-06   9.485589999633074e-07
-4.0130614229644974e-05   6.976526895806088e-06   9.485589999633074e-07
-4.0130614229644974e-05   6.976526895806088e-06   9.485589999633074e-07
-3.93311115523546e-05   0.0   -3.916690832647817e-05
-3.93311115523546e-05   0.0   -3.916690832647817e-05
-3.93311115523546e-05   0.0   -3.916690832647817e-05
-3.93311115523546e-05   0.0   -3.916690832647817e-05
-6.60093158481464e-05   8.377704899691465e-06   2.701425600267675e-07
-6.60093158481464e-05   8.377704899691465e-06   2.701425600267675e-07
-6.60093158481464e-05   8.377704899691465e-06   2.701425600267675e-07
-6.60093158481464e-05   8.377704899691465e-06   2.701425600267675e-07
-5.120571983573844e-05   1.9333099668093575e-06   -2.0535880500923853e-05
-5.120571983573844e-05   1.9333099668093575e-06   -2.0535880500923853e-05
-5.120571983573844e-05   1.9333099668093575e-06   -2.0535880500923853e-05
-5.120571983573844e-05   1.9333099668093575e-06   -2.0535880500923853e-05
-6.60093158481465e-05   0.0   -4.419353126629306e-05
-6.60093158481465e-05   0.0   -4.419353126629306e-05
-6.60093158481465e-05   0.0   -4.419353126629306e-05
-6.60093158481465e-05   0.0   -4.419353126629306e-05
-3.93311115523546e-05   8.377704899691478e-06   5.296765499841668e-06
-3.93311115523546e-05   8.377704899691478e-06   5.296765499841668e-06
-3.93311115523546e-05   8.377704899691478e-06   5.296765499841668e-06
-3.93311115523546e-05   8.377704899691478e-06   5.296765499841668e-06
-3.9435707561971685e-05   0.0   -4.012387426149866e-05
-3.9435707561971685e-05   0.0   -4.012387426149866e-05
-3.9435707561971685e-05   0.0   -4.012387426149866e-05
-3.9435707561971685e-05   0.0   -4.012387426149866e-05
-6.806341169408674e-05   8.97695060833279e-06   2.2027955936936174e-06
-6.806341169408674e-05   8.97695060833279e-06   2.2027955936936174e-06
-6.806341169408674e-05   8.97695060833279e-06   2.2027955936936174e-06
-6.806341169408674e-05   8.97695060833279e-06   2.2027955936936174e-06
-5.2722511705059e-05   3.3913808373286684e-06   -2.0014029192083465e-05
-5.2722511705059e-05   3.3913808373286684e-06   -2.0014029192083465e-05
-5.2722511705059e-05   3.3913808373286684e-06   -2.0014029192083465e-05
-5.2722511705059e-05   3.3913808373286684e-06   -2.0014029192083465e-05
-6.806341169408686e-05   0.0   -4.5510044626498334e-05
-6.806341169408686e-05   0.0   -4.5510044626498334e-05
-6.806341169408686e-05   0.0   -4.5510044626498334e-05
-6.806341169408686e-05   0.0   -4.5510044626498334e-05
-3.9435707561971685e-05   8.976950608332804e-06   7.588965958693305e-06
-3.9435707561971685e-05   8.976950608332804e-06   7.588965958693305e-06
-3.9435707561971685e-05   8.976950608332804e-06   7.588965958693305e-06
-3.9435707561971685e-05   8.976950608332804e-06   7.588965958693305e-06
-3.94078495968347e-05   0.0   -4.0370773676894056e-05
-3.94078495968347e-05   0.0   -4.0370773676894056e-05
-3.94078495968347e-05   0.0   -4.0370773676894056e-05
-3.94078495968347e-05   0.0   -4.0370773676894056e-05
-7.249477659330464e-05   1.0231278383703707e-05   8.635337620333791e-06
-7.249477659330464e-05   1.0231278383703707e-05   8.635337620333791e-06
-7.249477659330464e-05   1.0231278383703707e-05   8.635337620333791e-06
-7.249477659330464e-05   1.0231278383703707e-05   8.635337620333791e-06
-5.3735630645460685e-05   4.2827257913368995e-06   -1.906077407065268e-05
-5.3735630645460685e-05   4.2827257913368995e-06   -1.906077407065268e-05
-5.3735630645460685e-05   4.2827257913368995e-06   -1.906077407065268e-05
-5.3735630645460685e-05   4.2827257913368995e-06   -1.906077407065268e-05
-4.013061422964504e-05   0.0   -3.730096414916575e-05
-4.013061422964504e-05   0.0   -3.730096414916575e-05
-4.013061422964504e-05   0.0   -3.730096414916575e-05
-4.013061422964504e-05   0.0   -3.730096414916575e-05
-1.8283012766765568e-05   2.5564845813159245e-06   6.455957044229116e-07
-1.8283012766765568e-05   2.5564845813159245e-06   6.455957044229116e-07
-1.8283012766765568e-05   2.5564845813159245e-06   6.455957044229116e-07
-1.8283012766765568e-05   2.5564845813159245e-06   6.455957044229116e-07
-1.7578178744414256e-05   0.0   -3.6980837393193824e-05
-1.7578178744414256e-05   0.0   -3.6980837393193824e-05
-1.7578178744414256e-05   0.0   -3.6980837393193824e-05
-1.7578178744414256e-05   0.0   -3.6980837393193824e-05
-3.93311115523546e-05   3.6434515554738993e-06   -2.9120203132442662e-06
-3.93311115523546e-05   3.6434515554738993e-06   -2.9120203132442662e-06
-3.93311115523546e-05   3.6434515554738993e-06   -2.9120203132442662e-06
-3.93311115523546e-05   3.6434515554738993e-06   -2.9120203132442662e-06
-2.88543964870296e-05   2.667722966432631e-07   -1.834720453348742e-05
-2.88543964870296e-05   2.667722966432631e-07   -1.834720453348742e-05
-2.88543964870296e-05   2.667722966432631e-07   -1.834720453348742e-05
-2.88543964870296e-05   2.667722966432631e-07   -1.834720453348742e-05
-3.9331111552354566e-05   0.0   -3.916690832647814e-05
-3.9331111552354566e-05   0.0   -3.916690832647814e-05
-3.9331111552354566e-05   0.0   -3.916690832647814e-05
-3.9331111552354566e-05   0.0   -3.916690832647814e-05
-1.7578178744414256e-05   3.6434515554738993e-06   -7.259493799599287e-07
-1.7578178744414256e-05   3.6434515554738993e-06   -7.259493799599287e-07
-1.7578178744414256e-05   3.6434515554738993e-06   -7.259493799599287e-07
-1.7578178744414256e-05   3.6434515554738993e-06   -7.259493799599287e-07
-1.7179736883791825e-05   0.0   -3.744373871674328e-05
-1.7179736883791825e-05   0.0   -3.744373871674328e-05
-1.7179736883791825e-05   0.0   -3.744373871674328e-05
-1.7179736883791825e-05   0.0   -3.744373871674328e-05
-3.9435707561971685e-05   4.4668925745922885e-06   -3.0305897978655656e-06
-3.9435707561971685e-05   4.4668925745922885e-06   -3.0305897978655656e-06
-3.9435707561971685e-05   4.4668925745922885e-06   -3.0305897978655656e-06
-3.9435707561971685e-05   4.4668925745922885e-06   -3.0305897978655656e-06
-2.825542421807316e-05   1.4359746747790735e-06   -1.9845844631141684e-05
-2.825542421807316e-05   1.4359746747790735e-06   -1.9845844631141684e-05
-2.825542421807316e-05   1.4359746747790735e-06   -1.9845844631141684e-05
-2.825542421807316e-05   1.4359746747790735e-06   -1.9845844631141684e-05
-3.9435707561971685e-05   0.0   -4.012387426149866e-05
-3.9435707561971685e-05   0.0   -4.012387426149866e-05
-3.9435707561971685e-05   0.0   -4.012387426149866e-05
-3.9435707561971685e-05   0.0   -4.012387426149866e-05
-1.7179736883791825e-05   4.4668925745922885e-06   -3.5045425311019585e-07
-1.7179736883791825e-05   4.4668925745922885e-06   -3.5045425311019585e-07
-1.7179736883791825e-05   4.4668925745922885e-06   -3.5045425311019585e-07
-1.7179736883791825e-05   4.4668925745922885e-06   -3.5045425311019585e-07
-1.6815879558098908e-05   0.0   -3.7251223046288815e-05
-1.6815879558098908e-05   0.0   -3.7251223046288815e-05
-1.6815879558098908e-05   0.0   -3.7251223046288815e-05
-1.6815879558098908e-05   0.0   -3.7251223046288815e-05
-3.94078495968346e-05   5.199251051008665e-06   -2.7174902790010535e-06
-3.94078495968346e-05   5.199251051008665e-06   -2.7174902790010535e-06
-3.94078495968346e-05   5.199251051008665e-06   -2.7174902790010535e-06
-3.94078495968346e-05   5.199251051008665e-06   -2.7174902790010535e-06
-2.8125793560035283e-05   2.3938760126748437e-06   -1.9837691983999757e-05
-2.8125793560035283e-05   2.3938760126748437e-06   -1.9837691983999757e-05
-2.8125793560035283e-05   2.3938760126748437e-06   -1.9837691983999757e-05
-2.8125793560035283e-05   2.3938760126748437e-06   -1.9837691983999757e-05
-1.82830127667656e-05   0.0   -3.576707340037619e-05
-1.82830127667656e-05   0.0   -3.576707340037619e-05
-1.82830127667656e-05   0.0   -3.576707340037619e-05
-1.82830127667656e-05   0.0   -3.576707340037619e-05
2.353461134121291e-06   -3.2920251855940024e-07   -1.5704717433669738e-06
2.353461134121291e-06   -3.2920251855940024e-07   -1.5704717433669738e-06
2.353461134121291e-06   -3.2920251855940024e-07   -1.5704717433669738e-06
2.353461134121291e-06   -3.2920251855940024e-07   -1.5704717433669738e-06
2.806287373370525e-06   0.0   -3.659283592382472e-05
2.806287373370525e-06   0.0   -3.659283592382472e-05
2.806287373370525e-06   0.0   -3.659283592382472e-05
2.806287373370525e-06   0.0   -3.659283592382472e-05
-1.7578178744414225e-05   6.46669115614973e-07   -3.006727196885836e-06
-1.7578178744414225e-05   6.46669115614973e-07   -3.006727196885836e-06
-1.7578178744414225e-05   6.46669115614973e-07   -3.006727196885836e-06
-1.7578178744414225e-05   6.46669115614973e-07   -3.006727196885836e-06
-7.738362696697506e-06   -6.881354362072127e-07   -1.8605537878653664e-05
-7.738362696697506e-06   -6.881354362072127e-07   -1.8605537878653664e-05
-7.738362696697506e-06   -6.881354362072127e-07   -1.8605537878653664e-05
-7.738362696697506e-06   -6.881354362072127e-07   -1.8605537878653664e-05
-1.7578178744414256e-05   0.0   -3.6980837393193824e-05
-1.7578178744414256e-05   0.0   -3.6980837393193824e-05
-1.7578178744414256e-05   0.0   -3.6980837393193824e-05
-1.7578178744414256e-05   0.0   -3.6980837393193824e-05
2.8062873733705303e-06   6.46669115614973e-07   -2.618725727516855e-06
2.8062873733705303e-06   6.46669115614973e-07   -2.618725727516855e-06
2.8062873733705303e-06   6.46669115614973e-07   -2.618725727516855e-06
2.8062873733705303e-06   6.46669115614973e-07   -2.618725727516855e-06
3.1645225062727366e-06   0.0   -3.6539998659223e-05
3.1645225062727366e-06   0.0   -3.6539998659223e-05
3.1645225062727366e-06   0.0   -3.6539998659223e-05
3.1645225062727366e-06   0.0   -3.6539998659223e-05
-1.7179736883791764e-05   1.5062334292003624e-06   -3.5366397333023376e-06
-1.7179736883791764e-05   1.5062334292003624e-06   -3.5366397333023376e-06
-1.7179736883791764e-05   1.5062334292003624e-06   -3.5366397333023376e-06
-1.7179736883791764e-05   1.5062334292003624e-06   -3.5366397333023376e-06
-7.206828119070744e-06   3.6736561164230503e-07   -1.94748336506359e-05
-7.206828119070744e-06   3.6736561164230503e-07   -1.94748336506359e-05
-7.206828119070744e-06   3.6736561164230503e-07   -1.94748336506359e-05
-7.206828119070744e-06   3.6736561164230503e-07   -1.94748336506359e-05
-1.7179736883791825e-05   0.0   -3.744373871674328e-05
-1.7179736883791825e-05   0.0   -3.744373871674328e-05
-1.7179736883791825e-05   0.0   -3.744373871674328e-05
-1.7179736883791825e-05   0.0   -3.744373871674328e-05
3.164522506272742e-06   1.5062334292003624e-06   -2.6328996757821236e-06
3.164522506272742e-06   1.5062334292003624e-06   -2.6328996757821236e-06
3.164522506272742e-06   1.5062334292003624e-06   -2.6328996757821236e-06
3.164522506272742e-06   1.5062334292003624e-06   -2.6328996757821236e-06
3.6444300714139595e-06   0.0   -3.5750351888039305e-05
3.6444300714139595e-06   0.0   -3.5750351888039305e-05
3.6444300714139595e-06   0.0   -3.5750351888039305e-05
3.6444300714139595e-06   0.0   -3.5750351888039305e-05
-1.6815879558098864e-05   2.5014519304157945e-06   -3.150706997100697e-06
-1.6815879558098864e-05   2.5014519304157945e-06   -3.150706997100697e-06
-1.6815879558098864e-05   2.5014519304157945e-06   -3.150706997100697e-06
-1.6815879558098864e-05   2.5014519304157945e-06   -3.150706997100697e-06
-6.767653406188917e-06   1.41115569058659e-06   -1.9243572839719783e-05
-6.767653406188917e-06   1.41115569058659e-06   -1.9243572839719783e-05
-6.767653406188917e-06   1.41115569058659e-06   -1.9243572839719783e-05
-6.767653406188917e-06   1.41115569058659e-06   -1.9243572839719783e-05
2.3534611341212954e-06   0.0   -3.596459491151183e-05
2.3534611341212954e-06   0.0   -3.596459491151183e-05
2.3534611341212954e-06   0.0   -3.596459491151183e-05
2.3534611341212954e-06   0.0   -3.596459491151183e-05
2.4759422192734723e-05   -2.904060653176666e-06   -3.637628723954185e-07
2.4759422192734723e-05   -2.904060653176666e-06   -3.637628723954185e-07
2.4759422192734723e-05   -2.904060653176666e-06   -3.637628723954185e-07
2.4759422192734723e-05   -2.904060653176666e-06   -3.637628723954185e-07
2.4811015237054308e-05   0.0   -3.790533273574386e-05
2.4811015237054308e-05   0.0   -3.790533273574386e-05
2.4811015237054308e-05   0.0   -3.790533273574386e-05
2.4811015237054308e-05   0.0   -3.790533273574386e-05
2.806287373370535e-06   -2.187494686531692e-06   8.171051564810866e-08
2.806287373370535e-06   -2.187494686531692e-06   8.171051564810866e-08
2.806287373370535e-06   -2.187494686531692e-06   8.171051564810866e-08
2.806287373370535e-06   -2.187494686531692e-06   8.171051564810866e-08
1.3582238185587801e-05   -1.617281520193362e-06   -1.8220335404516987e-05
1.3582238185587801e-05   -1.617281520193362e-06   -1.8220335404516987e-05
1.3582238185587801e-05   -1.617281520193362e-06   -1.8220335404516987e-05
1.3582238185587801e-05   -1.617281520193362e-06   -1.8220335404516987e-05
2.806287373370535e-06   0.0   -3.659283592382484e-05
2.806287373370535e-06   0.0   -3.659283592382484e-05
2.806287373370535e-06   0.0   -3.659283592382484e-05
2.806287373370535e-06   0.0   -3.659283592382484e-05
2.4811015237054308e-05   -2.187494686531692e-06   -1.2307862962709053e-06
2.4811015237054308e-05   -2.187494686531692e-06   -1.2307862962709053e-06
2.4811015237054308e-05   -2.187494686531692e-06   -1.2307862962709053e-06
2.4811015237054308e-05   -2.187494686531692e-06   -1.2307862962709053e-06
2.4711274031639087e-05   0.0   -3.7364113104418216e-05
2.4711274031639087e-05   0.0   -3.7364113104418216e-05
2.4711274031639087e-05   0.0   -3.7364113104418216e-05
2.4711274031639087e-05   0.0   -3.7364113104418216e-05
3.164522506272742e-06   -1.3735240753252529e-06   -6.287461169458254e-07
3.164522506272742e-06   -1.3735240753252529e-06   -6.287461169458254e-07
3.164522506272742e-06   -1.3735240753252529e-06   -6.287461169458254e-07
3.164522506272742e-06   -1.3735240753252529e-06   -6.287461169458254e-07
1.3758780702504811e-05   -6.427309838278113e-07   -1.872431896556439e-05
1.3758780702504811e-05   -6.427309838278113e-07   -1.872431896556439e-05
1.3758780702504811e-05   -6.427309838278113e-07   -1.872431896556439e-05
1.3758780702504811e-05   -6.427309838278113e-07   -1.872431896556439e-05
3.164522506272739e-06   0.0   -3.653999865922303e-05
3.164522506272739e-06   0.0   -3.653999865922303e-05
3.164522506272739e-06   0.0   -3.653999865922303e-05
3.164522506272739e-06   0.0   -3.653999865922303e-05
2.4711274031639087e-05   -1.3735240753252529e-06   -1.452860562140976e-06
2.4711274031639087e-05   -1.3735240753252529e-06   -1.452860562140976e-06
2.4711274031639087e-05   -1.3735240753252529e-06   -1.452860562140976e-06
2.4711274031639087e-05   -1.3735240753252529e-06   -1.452860562140976e-06
2.5196122650910916e-05   0.0   -3.591842789839564e-05
2.5196122650910916e-05   0.0   -3.591842789839564e-05
2.5196122650910916e-05   0.0   -3.591842789839564e-05
2.5196122650910916e-05   0.0   -3.591842789839564e-05
3.644430071413966e-06   -2.801266839271127e-07   1.6913574445553756e-07
3.644430071413966e-06   -2.801266839271127e-07   1.6913574445553756e-07
3.644430071413966e-06   -2.801266839271127e-07   1.6913574445553756e-07
3.644430071413966e-06   -2.801266839271127e-07   1.6913574445553756e-07
1.4180322578591818e-05   5.179756340228524e-07   -1.7869546491610843e-05
1.4180322578591818e-05   5.179756340228524e-07   -1.7869546491610843e-05
1.4180322578591818e-05   5.179756340228524e-07   -1.7869546491610843e-05
1.4180322578591818e-05   5.179756340228524e-07   -1.7869546491610843e-05
2.4759422192734723e-05   0.0   -3.770703130341782e-05
2.4759422192734723e-05   0.0   -3.770703130341782e-05
2.4759422192734723e-05   0.0   -3.770703130341782e-05
2.4759422192734723e-05   0.0   -3.770703130341782e-05
5.593793887633602e-05   -7.366870710387495e-06   9.83704074301883e-06
5.593793887633602e-05   -7.366870710387495e-06   9.83704074301883e-06
5.593793887633602e-05   -7.366870710387495e-06   9.83704074301883e-06
5.593793887633602e-05   -7.366870710387495e-06   9.83704074301883e-06
5.2544580286259484e-05   0.0   -4.16637556631981e-05
5.2544580286259484e-05   0.0   -4.16637556631981e-05
5.2544580286259484e-05   0.0   -4.16637556631981e-05
5.2544580286259484e-05   0.0   -4.16637556631981e-05
2.4811015237054308e-05   -6.264038212423737e-06   8.317275679598082e-06
2.4811015237054308e-05   -6.264038212423737e-06   8.317275679598082e-06
2.4811015237054308e-05   -6.264038212423737e-06   8.317275679598082e-06
2.4811015237054308e-05   -6.264038212423737e-06   8.317275679598082e-06
3.865200123949711e-05   -3.2972702998168977e-06   -1.6531095072037314e-05
3.865200123949711e-05   -3.2972702998168977e-06   -1.6531095072037314e-05
3.865200123949711e-05   -3.2972702998168977e-06   -1.6531095072037314e-05
3.865200123949711e-05   -3.2972702998168977e-06   -1.6531095072037314e-05
2.4811015237054287e-05   0.0   -3.790533273574383e-05
2.4811015237054287e-05   0.0   -3.790533273574383e-05
2.4811015237054287e-05   0.0   -3.790533273574383e-05
2.4811015237054287e-05   0.0   -3.790533273574383e-05
5.25445802862593e-05   -6.26403821242371e-06   4.558852752143834e-06
5.25445802862593e-05   -6.26403821242371e-06   4.558852752143834e-06
5.25445802862593e-05   -6.26403821242371e-06   4.558852752143834e-06
5.25445802862593e-05   -6.26403821242371e-06   4.558852752143834e-06
5.098271232647748e-05   0.0   -4.079761486280609e-05
5.098271232647748e-05   0.0   -4.079761486280609e-05
5.098271232647748e-05   0.0   -4.079761486280609e-05
5.098271232647748e-05   0.0   -4.079761486280609e-05
2.4711274031639087e-05   -5.722502930646467e-06   6.421617386979097e-06
2.4711274031639087e-05   -5.722502930646467e-06   6.421617386979097e-06
2.4711274031639087e-05   -5.722502930646467e-06   6.421617386979097e-06
2.4711274031639087e-05   -5.722502930646467e-06   6.421617386979097e-06
3.789686378176587e-05   -2.4102351058851986e-06   -1.754172622475564e-05
3.789686378176587e-05   -2.4102351058851986e-06   -1.754172622475564e-05
3.789686378176587e-05   -2.4102351058851986e-06   -1.754172622475564e-05
3.789686378176587e-05   -2.4102351058851986e-06   -1.754172622475564e-05
2.4711274031639087e-05   0.0   -3.7364113104418216e-05
2.4711274031639087e-05   0.0   -3.7364113104418216e-05
2.4711274031639087e-05   0.0   -3.7364113104418216e-05
2.4711274031639087e-05   0.0   -3.7364113104418216e-05
5.0982712326477305e-05   -5.7225029306464395e-06   2.9881156285912076e-06
5.0982712326477305e-05   -5.7225029306464395e-06   2.9881156285912076e-06
5.0982712326477305e-05   -5.7225029306464395e-06   2.9881156285912076e-06
5.0982712326477305e-05   -5.7225029306464395e-06   2.9881156285912076e-06
4.8652972603844625e-05   0.0   -3.858420972337112e-05
4.8652972603844625e-05   0.0   -3.858420972337112e-05
4.8652972603844625e-05   0.0   -3.858420972337112e-05
4.8652972603844625e-05   0.0   -3.858420972337112e-05
2.5196122650910916e-05   -4.442969708292576e-06   3.176322023160685e-06
2.5196122650910916e-05   -4.442969708292576e-06   3.176322023160685e-06
2.5196122650910916e-05   -4.442969708292576e-06   3.176322023160685e-06
2.5196122650910916e-05   -4.442969708292576e-06   3.176322023160685e-06
3.66821233177419e-05   -1.0167471824608056e-06   -1.8022745937056665e-05
3.66821233177419e-05   -1.0167471824608056e-06   -1.8022745937056665e-05
3.66821233177419e-05   -1.0167471824608056e-06   -1.8022745937056665e-05
3.66821233177419e-05   -1.0167471824608056e-06   -1.8022745937056665e-05
-5.4666632596670015e-05   6.976526895806061e-06   -3.592633094148472e-05
-5.4666632596670015e-05   6.976526895806061e-06   -3.592633094148472e-05
-5.4666632596670015e-05   6.976526895806061e-06   -3.592633094148472e-05
-5.4666632596670015e-05   6.976526895806061e-06   -3.592633094148472e-05