<?xml version="1.0"?> 
<VTKFile type="UnstructuredGrid"> 
   <UnstructuredGrid> 
      <Piece NumberOfPoints="6000"  NumberOfCells="1500">  
          <Points>  
             <DataArray type="Float64" NumberOfComponents="3" format="ascii">   
-500.0   0.0   0.0
-450.0   0.0   0.0
-500.0   30.0   0.0
-500.0   0.0   16.666666666666668
-450.0   0.0   0.0
-450.0   30.0   0.0
-500.0   30.0   0.0
-450.0   30.0   16.666666666666668
-500.0   0.0   16.666666666666668
-500.0   30.0   16.666666666666668
-450.0   30.0   16.666666666666668
-500.0   30.0   0.0
-500.0   0.0   16.666666666666668
-450.0   30.0   16.666666666666668
-450.0   0.0   16.666666666666668
-450.0   0.0   0.0
-500.0   0.0   16.666666666666668
-450.0   30.0   16.666666666666668
-450.0   0.0   0.0
-500.0   30.0   0.0
-500.0   0.0   16.666666666666668
-450.0   0.0   16.666666666666668
-500.0   30.0   16.666666666666668
-500.0   0.0   33.333333333333336
-450.0   0.0   16.666666666666668
-450.0   30.0   16.666666666666668
-500.0   30.0   16.666666666666668
-450.0   30.0   33.333333333333336
-500.0   0.0   33.333333333333336
-500.0   30.0   33.333333333333336
-450.0   30.0   33.333333333333336
-500.0   30.0   16.666666666666668
-500.0   0.0   33.333333333333336
-450.0   30.0   33.333333333333336
-450.0   0.0   33.333333333333336
-450.0   0.0   16.666666666666668
-500.0   0.0   33.333333333333336
-450.0   30.0   33.333333333333336
-450.0   0.0   16.666666666666668
-500.0   30.0   16.666666666666668
-500.0   0.0   33.333333333333336
-450.0   0.0   33.333333333333336
-500.0   30.0   33.333333333333336
-500.0   0.0   50.0
-450.0   0.0   33.333333333333336
-450.0   30.0   33.333333333333336
-500.0   30.0   33.333333333333336
-450.0   30.0   50.0
-500.0   0.0   50.0
-500.0   30.0   50.0
-450.0   30.0   50.0
-500.0   30.0   33.333333333333336
-500.0   0.0   50.0
-450.0   30.0   50.0
-450.0   0.0   50.0
-450.0   0.0   33.333333333333336
-500.0   0.0   50.0
-450.0   30.0   50.0
-450.0   0.0   33.333333333333336
-500.0   30.0   33.333333333333336
-500.0   30.0   0.0
-450.0   30.0   0.0
-500.0   60.0   0.0
-500.0   30.0   16.666666666666668
-450.0   30.0   0.0
-450.0   60.0   0.0
-500.0   60.0   0.0
-450.0   60.0   16.666666666666668
-500.0   30.0   16.666666666666668
-500.0   60.0   16.666666666666668
-450.0   60.0   16.666666666666668
-500.0   60.0   0.0
-500.0   30.0   16.666666666666668
-450.0   60.0   16.666666666666668
-450.0   30.0   16.666666666666668
-450.0   30.0   0.0
-500.0   30.0   16.666666666666668
-450.0   60.0   16.666666666666668
-450.0   30.0   0.0
-500.0   60.0   0.0
-500.0   30.0   16.666666666666668
-450.0   30.0   16.666666666666668
-500.0   60.0   16.666666666666668
-500.0   30.0   33.333333333333336
-450.0   30.0   16.666666666666668
-450.0   60.0   16.666666666666668
-500.0   60.0   16.666666666666668
-450.0   60.0   33.333333333333336
-500.0   30.0   33.333333333333336
-500.0   60.0   33.333333333333336
-450.0   60.0   33.333333333333336
-500.0   60.0   16.666666666666668
-500.0   30.0   33.333333333333336
-450.0   60.0   33.333333333333336
-450.0   30.0   33.333333333333336
-450.0   30.0   16.666666666666668
-500.0   30.0   33.333333333333336
-450.0   60.0   33.333333333333336
-450.0   30.0   16.666666666666668
-500.0   60.0   16.666666666666668
-500.0   30.0   33.333333333333336
-450.0   30.0   33.333333333333336
-500.0   60.0   33.333333333333336
-500.0   30.0   50.0
-450.0   30.0   33.333333333333336
-450.0   60.0   33.333333333333336
-500.0   60.0   33.333333333333336
-450.0   60.0   50.0
-500.0   30.0   50.0
-500.0   60.0   50.0
-450.0   60.0   50.0
-500.0   60.0   33.333333333333336
-500.0   30.0   50.0
-450.0   60.0   50.0
-450.0   30.0   50.0
-450.0   30.0   33.333333333333336
-500.0   30.0   50.0
-450.0   60.0   50.0
-450.0   30.0   33.333333333333336
-500.0   60.0   33.333333333333336
-500.0   60.0   0.0
-450.0   60.0   0.0
-500.0   90.0   0.0
-500.0   60.0   16.666666666666668
-450.0   60.0   0.0
-450.0   90.0   0.0
-500.0   90.0   0.0
-450.0   90.0   16.666666666666668
-500.0   60.0   16.666666666666668
-500.0   90.0   16.666666666666668
-450.0   90.0   16.666666666666668
-500.0   90.0   0.0
-500.0   60.0   16.666666666666668
-450.0   90.0   16.666666666666668
-450.0   60.0   16.666666666666668
-450.0   60.0   0.0
-500.0   60.0   16.666666666666668
-450.0   90.0   16.666666666666668
-450.0   60.0   0.0
-500.0   90.0   0.0
-500.0   60.0   16.666666666666668
-450.0   60.0   16.666666666666668
-500.0   90.0   16.666666666666668
-500.0   60.0   33.333333333333336
-450.0   60.0   16.666666666666668
-450.0   90.0   16.666666666666668
-500.0   90.0   16.666666666666668
-450.0   90.0   33.333333333333336
-500.0   60.0   33.333333333333336
-500.0   90.0   33.333333333333336
-450.0   90.0   33.333333333333336
-500.0   90.0   16.666666666666668
-500.0   60.0   33.333333333333336
-450.0   90.0   33.333333333333336
-450.0   60.0   33.333333333333336
-450.0   60.0   16.666666666666668
-500.0   60.0   33.333333333333336
-450.0   90.0   33.333333333333336
-450.0   60.0   16.666666666666668
-500.0   90.0   16.666666666666668
-500.0   60.0   33.333333333333336
-450.0   60.0   33.333333333333336
-500.0   90.0   33.333333333333336
-500.0   60.0   50.0
-450.0   60.0   33.333333333333336
-450.0   90.0   33.333333333333336
-500.0   90.0   33.333333333333336
-450.0   90.0   50.0
-500.0   60.0   50.0
-500.0   90.0   50.0
-450.0   90.0   50.0
-500.0   90.0   33.333333333333336
-500.0   60.0   50.0
-450.0   90.0   50.0
-450.0   60.0   50.0
-450.0   60.0   33.333333333333336
-500.0   60.0   50.0
-450.0   90.0   50.0
-450.0   60.0   33.333333333333336
-500.0   90.0   33.333333333333336
-500.0   90.0   0.0
-450.0   90.0   0.0
-500.0   120.0   0.0
-500.0   90.0   16.666666666666668
-450.0   90.0   0.0
-450.0   120.0   0.0
-500.0   120.0   0.0
-450.0   120.0   16.666666666666668
-500.0   90.0   16.666666666666668
-500.0   120.0   16.666666666666668
-450.0   120.0   16.666666666666668
-500.0   120.0   0.0
-500.0   90.0   16.666666666666668
-450.0   120.0   16.666666666666668
-450.0   90.0   16.666666666666668
-450.0   90.0   0.0
-500.0   90.0   16.666666666666668
-450.0   120.0   16.666666666666668
-450.0   90.0   0.0
-500.0   120.0   0.0
-500.0   90.0   16.666666666666668
-450.0   90.0   16.666666666666668
-500.0   120.0   16.666666666666668
-500.0   90.0   33.333333333333336
-450.0   90.0   16.666666666666668
-450.0   120.0   16.666666666666668
-500.0   120.0   16.666666666666668
-450.0   120.0   33.333333333333336
-500.0   90.0   33.333333333333336
-500.0   120.0   33.333333333333336
-450.0   120.0   33.333333333333336
-500.0   120.0   16.666666666666668
-500.0   90.0   33.333333333333336
-450.0   120.0   33.333333333333336
-450.0   90.0   33.333333333333336
-450.0   90.0   16.666666666666668
-500.0   90.0   33.333333333333336
-450.0   120.0   33.333333333333336
-450.0   90.0   16.666666666666668
-500.0   120.0   16.666666666666668
-500.0   90.0   33.333333333333336
-450.0   90.0   33.333333333333336
-500.0   120.0   33.333333333333336
-500.0   90.0   50.0
-450.0   90.0   33.333333333333336
-450.0   120.0   33.333333333333336
-500.0   120.0   33.333333333333336
-450.0   120.0   50.0
-500.0   90.0   50.0
-500.0   120.0   50.0
-450.0   120.0   50.0
-500.0   120.0   33.333333333333336
-500.0   90.0   50.0
-450.0   120.0   50.0
-450.0   90.0   50.0
-450.0   90.0   33.333333333333336
-500.0   90.0   50.0
-450.0   120.0   50.0
-450.0   90.0   33.333333333333336
-500.0   120.0   33.333333333333336
-500.0   120.0   0.0
-450.0   120.0   0.0
-500.0   150.0   0.0
-500.0   120.0   16.666666666666668
-450.0   120.0   0.0
-450.0   150.0   0.0
-500.0   150.0   0.0
-450.0   150.0   16.666666666666668
-500.0   120.0   16.666666666666668
-500.0   150.0   16.666666666666668
-450.0   150.0   16.666666666666668
-500.0   150.0   0.0
-500.0   120.0   16.666666666666668
-450.0   150.0   16.666666666666668
-450.0   120.0   16.666666666666668
-450.0   120.0   0.0
-500.0   120.0   16.666666666666668
-450.0   150.0   16.666666666666668
-450.0   120.0   0.0
-500.0   150.0   0.0
-500.0   120.0   16.666666666666668
-450.0   120.0   16.666666666666668
-500.0   150.0   16.666666666666668
-500.0   120.0   33.333333333333336
-450.0   120.0   16.666666666666668
-450.0   150.0   16.666666666666668
-500.0   150.0   16.666666666666668
-450.0   150.0   33.333333333333336
-500.0   120.0   33.333333333333336
-500.0   150.0   33.333333333333336
-450.0   150.0   33.333333333333336
-500.0   150.0   16.666666666666668
-500.0   120.0   33.333333333333336
-450.0   150.0   33.333333333333336
-450.0   120.0   33.333333333333336
-450.0   120.0   16.666666666666668
-500.0   120.0   33.333333333333336
-450.0   150.0   33.333333333333336
-450.0   120.0   16.666666666666668
-500.0   150.0   16.666666666666668
-500.0   120.0   33.333333333333336
-450.0   120.0   33.333333333333336
-500.0   150.0   33.333333333333336
-500.0   120.0   50.0
-450.0   120.0   33.333333333333336
-450.0   150.0   33.333333333333336
-500.0   150.0   33.333333333333336
-450.0   150.0   50.0
-500.0   120.0   50.0
-500.0   150.0   50.0
-450.0   150.0   50.0
-500.0   150.0   33.333333333333336
-500.0   120.0   50.0
-450.0   150.0   50.0
-450.0   120.0   50.0
-450.0   120.0   33.333333333333336
-500.0   120.0   50.0
-450.0   150.0   50.0
-450.0   120.0   33.333333333333336
-500.0   150.0   33.333333333333336
-450.0   0.0   0.0
-400.0   0.0   0.0
-450.0   30.0   0.0
-450.0   0.0   16.666666666666668
-400.0   0.0   0.0
-400.0   30.0   0.0
-450.0   30.0   0.0
-400.0   30.0   16.666666666666668
-450.0   0.0   16.666666666666668
-450.0   30.0   16.666666666666668
-400.0   30.0   16.666666666666668
-450.0   30.0   0.0
-450.0   0.0   16.666666666666668
-400.0   30.0   16.666666666666668
-400.0   0.0   16.666666666666668
-400.0   0.0   0.0
-450.0   0.0   16.666666666666668
-400.0   30.0   16.666666666666668
-400.0   0.0   0.0
-450.0   30.0   0.0
-450.0   0.0   16.666666666666668
-400.0   0.0   16.666666666666668
-450.0   30.0   16.666666666666668
[...]
          <PointData>  
             <DataArray type="Float64" NumberOfComponents="3" Name="Strains" format="ascii">   
-5.0563138292272826e-05   0.0   -3.330651037324812e-05
-5.0563138292272826e-05   0.0   -3.330651037324812e-05
-5.0563138292272826e-05   0.0   -3.330651037324812e-05
-5.0563138292272826e-05   0.0   -3.330651037324812e-05
-3.2162252911419565e-05   5.585260096377502e-06   7.127879860004002e-07
-3.2162252911419565e-05   5.585260096377502e-06   7.127879860004002e-07
-3.2162252911419565e-05   5.585260096377502e-06   7.127879860004002e-07
-3.2162252911419565e-05   5.585260096377502e-06   7.127879860004002e-07
-3.151794217797725e-05   0.0   -3.1450820941146746e-05
-3.151794217797725e-05   0.0   -3.1450820941146746e-05
-3.151794217797725e-05   0.0   -3.1450820941146746e-05
-3.151794217797725e-05   0.0   -3.1450820941146746e-05
-5.290652083237476e-05   6.710309663165168e-06   1.7062435161681409e-07
-5.290652083237476e-05   6.710309663165168e-06   1.7062435161681409e-07
-5.290652083237476e-05   6.710309663165168e-06   1.7062435161681409e-07
-5.290652083237476e-05   6.710309663165168e-06   1.7062435161681409e-07
-4.1040540235124966e-05   1.5464078600844833e-06   -1.6507668895284413e-05
-4.1040540235124966e-05   1.5464078600844833e-06   -1.6507668895284413e-05
-4.1040540235124966e-05   1.5464078600844833e-06   -1.6507668895284413e-05
-4.1040540235124966e-05   1.5464078600844833e-06   -1.6507668895284413e-05
-5.290652083237485e-05   0.0   -3.547700673904586e-05
-5.290652083237485e-05   0.0   -3.547700673904586e-05
-5.290652083237485e-05   0.0   -3.547700673904586e-05
-5.290652083237485e-05   0.0   -3.547700673904586e-05
-3.151794217797725e-05   6.7103096631651815e-06   4.196810149515919e-06
-3.151794217797725e-05   6.7103096631651815e-06   4.196810149515919e-06
-3.151794217797725e-05   6.7103096631651815e-06   4.196810149515919e-06
-3.151794217797725e-05   6.7103096631651815e-06   4.196810149515919e-06
-3.159791231177968e-05   0.0   -3.2218226675338576e-05
-3.159791231177968e-05   0.0   -3.2218226675338576e-05
-3.159791231177968e-05   0.0   -3.2218226675338576e-05
-3.159791231177968e-05   0.0   -3.2218226675338576e-05
-5.4548162252190125e-05   7.191186078055687e-06   1.7174782451789025e-06
-5.4548162252190125e-05   7.191186078055687e-06   1.7174782451789025e-06
-5.4548162252190125e-05   7.191186078055687e-06   1.7174782451789025e-06
-5.4548162252190125e-05   7.191186078055687e-06   1.7174782451789025e-06
-4.2252216572077195e-05   2.7156500530893942e-06   -1.609044294002953e-05
-4.2252216572077195e-05   2.7156500530893942e-06   -1.609044294002953e-05
-4.2252216572077195e-05   2.7156500530893942e-06   -1.609044294002953e-05
-4.2252216572077195e-05   2.7156500530893942e-06   -1.609044294002953e-05
-5.454816225219021e-05   0.0   -3.6532938322172e-05
-5.454816225219021e-05   0.0   -3.6532938322172e-05
-5.454816225219021e-05   0.0   -3.6532938322172e-05
-5.454816225219021e-05   0.0   -3.6532938322172e-05
-3.159791231177968e-05   7.1911860780557004e-06   6.032189892012317e-06
-3.159791231177968e-05   7.1911860780557004e-06   6.032189892012317e-06
-3.159791231177968e-05   7.1911860780557004e-06   6.032189892012317e-06
-3.159791231177968e-05   7.1911860780557004e-06   6.032189892012317e-06
-3.15712528834193e-05   0.0   -3.241682530889683e-05
-3.15712528834193e-05   0.0   -3.241682530889683e-05
-3.15712528834193e-05   0.0   -3.241682530889683e-05
-3.15712528834193e-05   0.0   -3.241682530889683e-05
-5.809355832668326e-05   8.198794460607318e-06   6.867740420178837e-06
-5.809355832668326e-05   8.198794460607318e-06   6.867740420178837e-06
-5.809355832668326e-05   8.198794460607318e-06   6.867740420178837e-06
-5.809355832668326e-05   8.198794460607318e-06   6.867740420178837e-06
-4.305970756780469e-05   3.4300941777293046e-06   -1.5327457341558614e-05
-4.305970756780469e-05   3.4300941777293046e-06   -1.5327457341558614e-05
-4.305970756780469e-05   3.4300941777293046e-06   -1.5327457341558614e-05
-4.305970756780469e-05   3.4300941777293046e-06   -1.5327457341558614e-05
-3.216225291141962e-05   0.0   -2.9955354315421624e-05
-3.216225291141962e-05   0.0   -2.9955354315421624e-05
-3.216225291141962e-05   0.0   -2.9955354315421624e-05
-3.216225291141962e-05   0.0   -2.9955354315421624e-05
-1.4657174646691578e-05   2.045334662580212e-06   4.46976923339891e-07
-1.4657174646691578e-05   2.045334662580212e-06   4.46976923339891e-07
-1.4657174646691578e-05   2.045334662580212e-06   4.46976923339891e-07
-1.4657174646691578e-05   2.045334662580212e-06   4.46976923339891e-07
-1.4088373301639374e-05   0.0   -2.9700471844034974e-05
-1.4088373301639374e-05   0.0   -2.9700471844034974e-05
-1.4088373301639374e-05   0.0   -2.9700471844034974e-05
-1.4088373301639374e-05   0.0   -2.9700471844034974e-05
-3.151794217797725e-05   2.917248495186287e-06   -2.401539480583632e-06
-3.151794217797725e-05   2.917248495186287e-06   -2.401539480583632e-06
-3.151794217797725e-05   2.917248495186287e-06   -2.401539480583632e-06
-3.151794217797725e-05   2.917248495186287e-06   -2.401539480583632e-06
-2.312531310652946e-05   2.124020594888725e-07   -1.4766346738244725e-05
-2.312531310652946e-05   2.124020594888725e-07   -1.4766346738244725e-05
-2.312531310652946e-05   2.124020594888725e-07   -1.4766346738244725e-05
-2.312531310652946e-05   2.124020594888725e-07   -1.4766346738244725e-05
-3.151794217797722e-05   0.0   -3.145082094114672e-05
-3.151794217797722e-05   0.0   -3.145082094114672e-05
-3.151794217797722e-05   0.0   -3.145082094114672e-05
-3.151794217797722e-05   0.0   -3.145082094114672e-05
-1.4088373301639374e-05   2.917248495186287e-06   -6.511903834718602e-07
-1.4088373301639374e-05   2.917248495186287e-06   -6.511903834718602e-07
-1.4088373301639374e-05   2.917248495186287e-06   -6.511903834718602e-07
-1.4088373301639374e-05   2.917248495186287e-06   -6.511903834718602e-07
-1.376527229999023e-05   0.0   -3.007144904221929e-05
-1.376527229999023e-05   0.0   -3.007144904221929e-05
-1.376527229999023e-05   0.0   -3.007144904221929e-05
-1.376527229999023e-05   0.0   -3.007144904221929e-05
-3.159791231177968e-05   3.5779627218654805e-06   -2.497159989022837e-06
-3.159791231177968e-05   3.5779627218654805e-06   -2.497159989022837e-06
-3.159791231177968e-05   3.5779627218654805e-06   -2.497159989022837e-06
-3.159791231177968e-05   3.5779627218654805e-06   -2.497159989022837e-06
-2.2641607238983694e-05   1.1494765824395437e-06   -1.5967243426693785e-05
-2.2641607238983694e-05   1.1494765824395437e-06   -1.5967243426693785e-05
-2.2641607238983694e-05   1.1494765824395437e-06   -1.5967243426693785e-05
-2.2641607238983694e-05   1.1494765824395437e-06   -1.5967243426693785e-05
-3.159791231177968e-05   0.0   -3.2218226675338576e-05
-3.159791231177968e-05   0.0   -3.2218226675338576e-05
-3.159791231177968e-05   0.0   -3.2218226675338576e-05
-3.159791231177968e-05   0.0   -3.2218226675338576e-05
-1.376527229999023e-05   3.5779627218654805e-06   -3.503823559035492e-07
-1.376527229999023e-05   3.5779627218654805e-06   -3.503823559035492e-07
-1.376527229999023e-05   3.5779627218654805e-06   -3.503823559035492e-07
-1.376527229999023e-05   3.5779627218654805e-06   -3.503823559035492e-07
-1.346959065033409e-05   0.0   -2.9917530057065865e-05
-1.346959065033409e-05   0.0   -2.9917530057065865e-05
-1.346959065033409e-05   0.0   -2.9917530057065865e-05
-1.346959065033409e-05   0.0   -2.9917530057065865e-05
-3.157125288341922e-05   4.16549208638489e-06   -2.2473882537547897e-06
-3.157125288341922e-05   4.16549208638489e-06   -2.2473882537547897e-06
-3.157125288341922e-05   4.16549208638489e-06   -2.2473882537547897e-06
-3.157125288341922e-05   4.16549208638489e-06   -2.2473882537547897e-06
-2.2533751481056876e-05   1.9172471818939094e-06   -1.5960943648330892e-05
-2.2533751481056876e-05   1.9172471818939094e-06   -1.5960943648330892e-05
-2.2533751481056876e-05   1.9172471818939094e-06   -1.5960943648330892e-05
-2.2533751481056876e-05   1.9172471818939094e-06   -1.5960943648330892e-05
-1.4657174646691603e-05   0.0   -2.8728153517873493e-05
-1.4657174646691603e-05   0.0   -2.8728153517873493e-05
-1.4657174646691603e-05   0.0   -2.8728153517873493e-05
-1.4657174646691603e-05   0.0   -2.8728153517873493e-05
1.8742159409558148e-06   -2.6438502896974247e-07   -1.3344668891762804e-06
1.8742159409558148e-06   -2.6438502896974247e-07   -1.3344668891762804e-06
1.8742159409558148e-06   -2.6438502896974247e-07   -1.3344668891762804e-06
1.8742159409558148e-06   -2.6438502896974247e-07   -1.3344668891762804e-06
2.2414139848590995e-06   0.0   -2.9389541628508814e-05
2.2414139848590995e-06   0.0   -2.9389541628508814e-05
2.2414139848590995e-06   0.0   -2.9389541628508814e-05
2.2414139848590995e-06   0.0   -2.9389541628508814e-05
-1.408837330163935e-05   5.182170258767661e-07   -2.4841596998708357e-06
-1.408837330163935e-05   5.182170258767661e-07   -2.4841596998708357e-06
-1.408837330163935e-05   5.182170258767661e-07   -2.4841596998708357e-06
-1.408837330163935e-05   5.182170258767661e-07   -2.4841596998708357e-06
-6.207880330916226e-06   -5.511567588628504e-07   -1.4976690380232219e-05
-6.207880330916226e-06   -5.511567588628504e-07   -1.4976690380232219e-05
-6.207880330916226e-06   -5.511567588628504e-07   -1.4976690380232219e-05
-6.207880330916226e-06   -5.511567588628504e-07   -1.4976690380232219e-05
-1.4088373301639374e-05   0.0   -2.9700471844034974e-05
-1.4088373301639374e-05   0.0   -2.9700471844034974e-05
-1.4088373301639374e-05   0.0   -2.9700471844034974e-05
-1.4088373301639374e-05   0.0   -2.9700471844034974e-05
2.2414139848591033e-06   5.182170258767661e-07   -2.173229484344777e-06
2.2414139848591033e-06   5.182170258767661e-07   -2.173229484344777e-06
2.2414139848591033e-06   5.182170258767661e-07   -2.173229484344777e-06
2.2414139848591033e-06   5.182170258767661e-07   -2.173229484344777e-06
2.5324084289553204e-06   0.0   -2.934681076410193e-05
2.5324084289553204e-06   0.0   -2.934681076410193e-05
2.5324084289553204e-06   0.0   -2.934681076410193e-05
2.5324084289553204e-06   0.0   -2.934681076410193e-05
-1.3765272299990183e-05   1.2077304635288403e-06   -2.9086478273100254e-06
-1.3765272299990183e-05   1.2077304635288403e-06   -2.9086478273100254e-06
-1.3765272299990183e-05   1.2077304635288403e-06   -2.9086478273100254e-06
-1.3765272299990183e-05   1.2077304635288403e-06   -2.9086478273100254e-06
-5.777982436342015e-06   2.947175666108271e-07   -1.567298986190619e-05
-5.777982436342015e-06   2.947175666108271e-07   -1.567298986190619e-05
-5.777982436342015e-06   2.947175666108271e-07   -1.567298986190619e-05
-5.777982436342015e-06   2.947175666108271e-07   -1.567298986190619e-05
-1.376527229999023e-05   0.0   -3.007144904221929e-05
-1.376527229999023e-05   0.0   -3.007144904221929e-05
-1.376527229999023e-05   0.0   -3.007144904221929e-05
-1.376527229999023e-05   0.0   -3.007144904221929e-05
2.532408428955325e-06   1.207730463528847e-06   -2.184009549192725e-06
2.532408428955325e-06   1.207730463528847e-06   -2.184009549192725e-06
2.532408428955325e-06   1.207730463528847e-06   -2.184009549192725e-06
2.532408428955325e-06   1.207730463528847e-06   -2.184009549192725e-06
2.9209831097360967e-06   0.0   -2.871403047404392e-05
2.9209831097360967e-06   0.0   -2.871403047404392e-05
2.9209831097360967e-06   0.0   -2.871403047404392e-05
2.9209831097360967e-06   0.0   -2.871403047404392e-05
-1.3469590650334055e-05   2.005832638369865e-06   -2.5999071236155456e-06
-1.3469590650334055e-05   2.005832638369865e-06   -2.5999071236155456e-06
-1.3469590650334055e-05   2.005832638369865e-06   -2.5999071236155456e-06
-1.3469590650334055e-05   2.005832638369865e-06   -2.5999071236155456e-06
-5.422144595127055e-06   1.1311821401461016e-06   -1.548752691669298e-05
-5.422144595127055e-06   1.1311821401461016e-06   -1.548752691669298e-05
-5.422144595127055e-06   1.1311821401461016e-06   -1.548752691669298e-05
-5.422144595127055e-06   1.1311821401461016e-06   -1.548752691669298e-05
1.874215940955818e-06   0.0   -2.8886784535255338e-05
1.874215940955818e-06   0.0   -2.8886784535255338e-05
1.874215940955818e-06   0.0   -2.8886784535255338e-05
1.874215940955818e-06   0.0   -2.8886784535255338e-05
1.982637583732728e-05   -2.325478356062066e-06   -3.6180505494011635e-07
1.982637583732728e-05   -2.325478356062066e-06   -3.6180505494011635e-07
1.982637583732728e-05   -2.325478356062066e-06   -3.6180505494011635e-07
1.982637583732728e-05   -2.325478356062066e-06   -3.6180505494011635e-07
1.9872527721588476e-05   0.0   -3.043989549149615e-05
1.9872527721588476e-05   0.0   -3.043989549149615e-05
1.9872527721588476e-05   0.0   -3.043989549149615e-05
1.9872527721588476e-05   0.0   -3.043989549149615e-05
2.241413984859107e-06   -1.7505897716453951e-06   -4.3520672933090765e-09
2.241413984859107e-06   -1.7505897716453951e-06   -4.3520672933090765e-09
2.241413984859107e-06   -1.7505897716453951e-06   -4.3520672933090765e-09
2.241413984859107e-06   -1.7505897716453951e-06   -4.3520672933090765e-09
1.0873371831272147e-05   -1.2942591302006801e-06   -1.4664746862848517e-05
1.0873371831272147e-05   -1.2942591302006801e-06   -1.4664746862848517e-05
1.0873371831272147e-05   -1.2942591302006801e-06   -1.4664746862848517e-05
1.0873371831272147e-05   -1.2942591302006801e-06   -1.4664746862848517e-05
2.241413984859107e-06   0.0   -2.9389541628508915e-05
2.241413984859107e-06   0.0   -2.9389541628508915e-05
2.241413984859107e-06   0.0   -2.9389541628508915e-05
2.241413984859107e-06   0.0   -2.9389541628508915e-05
1.9872527721588476e-05   -1.7505897716453951e-06   -1.054705930280547e-06
1.9872527721588476e-05   -1.7505897716453951e-06   -1.054705930280547e-06
1.9872527721588476e-05   -1.7505897716453951e-06   -1.054705930280547e-06
1.9872527721588476e-05   -1.7505897716453951e-06   -1.054705930280547e-06
1.9796807612470536e-05   0.0   -3.0005303346383682e-05
1.9796807612470536e-05   0.0   -3.0005303346383682e-05
1.9796807612470536e-05   0.0   -3.0005303346383682e-05
1.9796807612470536e-05   0.0   -3.0005303346383682e-05
2.532408428955325e-06   -1.097487637136169e-06   -5.728121249099673e-07
2.532408428955325e-06   -1.097487637136169e-06   -5.728121249099673e-07
2.532408428955325e-06   -1.097487637136169e-06   -5.728121249099673e-07
2.532408428955325e-06   -1.097487637136169e-06   -5.728121249099673e-07
1.1019110798664821e-05   -5.131347648956405e-07   -1.50679277977701e-05
1.1019110798664821e-05   -5.131347648956405e-07   -1.50679277977701e-05
1.1019110798664821e-05   -5.131347648956405e-07   -1.50679277977701e-05
1.1019110798664821e-05   -5.131347648956405e-07   -1.50679277977701e-05
2.532408428955323e-06   0.0   -2.9346810764101956e-05
2.532408428955323e-06   0.0   -2.9346810764101956e-05
2.532408428955323e-06   0.0   -2.9346810764101956e-05
2.532408428955323e-06   0.0   -2.9346810764101956e-05
1.9796807612470536e-05   -1.097487637136169e-06   -1.2313047071916706e-06
1.9796807612470536e-05   -1.097487637136169e-06   -1.2313047071916706e-06
1.9796807612470536e-05   -1.097487637136169e-06   -1.2313047071916706e-06
1.9796807612470536e-05   -1.097487637136169e-06   -1.2313047071916706e-06
2.0189235753831153e-05   0.0   -2.8846292355595405e-05
2.0189235753831153e-05   0.0   -2.8846292355595405e-05
2.0189235753831153e-05   0.0   -2.8846292355595405e-05
2.0189235753831153e-05   0.0   -2.8846292355595405e-05
2.920983109736102e-06   -2.204364692523977e-07   6.639059944778164e-08
2.920983109736102e-06   -2.204364692523977e-07   6.639059944778164e-08
2.920983109736102e-06   -2.204364692523977e-07   6.639059944778164e-08
2.920983109736102e-06   -2.204364692523977e-07   6.639059944778164e-08
1.136082209139323e-05   4.170986737554792e-07   -1.4382528789118811e-05
1.136082209139323e-05   4.170986737554792e-07   -1.4382528789118811e-05
1.136082209139323e-05   4.170986737554792e-07   -1.4382528789118811e-05
1.136082209139323e-05   4.170986737554792e-07   -1.4382528789118811e-05
1.982637583732728e-05   0.0   -3.0282071548892573e-05
1.982637583732728e-05   0.0   -3.0282071548892573e-05
1.982637583732728e-05   0.0   -3.0282071548892573e-05
1.982637583732728e-05   0.0   -3.0282071548892573e-05
4.481849261607079e-05   -5.902407897992257e-06   7.83001167688484e-06
4.481849261607079e-05   -5.902407897992257e-06   7.83001167688484e-06
4.481849261607079e-05   -5.902407897992257e-06   7.83001167688484e-06
4.481849261607079e-05   -5.902407897992257e-06   7.83001167688484e-06
4.2105952049362046e-05   0.0   -3.3449648038125655e-05
4.2105952049362046e-05   0.0   -3.3449648038125655e-05
4.2105952049362046e-05   0.0   -3.3449648038125655e-05
4.2105952049362046e-05   0.0   -3.3449648038125655e-05
1.9872527721588476e-05   -5.016254244382499e-06   6.615811721459786e-06
1.9872527721588476e-05   -5.016254244382499e-06   6.615811721459786e-06
1.9872527721588476e-05   -5.016254244382499e-06   6.615811721459786e-06
1.9872527721588476e-05   -5.016254244382499e-06   6.615811721459786e-06
3.096616394334466e-05   -2.6396470743609e-06   -1.3299546283480131e-05
3.096616394334466e-05   -2.6396470743609e-06   -1.3299546283480131e-05
3.096616394334466e-05   -2.6396470743609e-06   -1.3299546283480131e-05
3.096616394334466e-05   -2.6396470743609e-06   -1.3299546283480131e-05
1.987252772158846e-05   0.0   -3.0439895491496125e-05
1.987252772158846e-05   0.0   -3.0439895491496125e-05
1.987252772158846e-05   0.0   -3.0439895491496125e-05
1.987252772158846e-05   0.0   -3.0439895491496125e-05
4.21059520493619e-05   -5.0162542443824855e-06   3.6060591748302706e-06
4.21059520493619e-05   -5.0162542443824855e-06   3.6060591748302706e-06
4.21059520493619e-05   -5.0162542443824855e-06   3.6060591748302706e-06
4.21059520493619e-05   -5.0162542443824855e-06   3.6060591748302706e-06
4.085933297451359e-05   0.0   -3.2754314494431946e-05
4.085933297451359e-05   0.0   -3.2754314494431946e-05
4.085933297451359e-05   0.0   -3.2754314494431946e-05
4.085933297451359e-05   0.0   -3.2754314494431946e-05
1.9796807612470536e-05   -4.581685246747104e-06   5.098905590354744e-06
1.9796807612470536e-05   -4.581685246747104e-06   5.098905590354744e-06
1.9796807612470536e-05   -4.581685246747104e-06   5.098905590354744e-06
1.9796807612470536e-05   -4.581685246747104e-06   5.098905590354744e-06
3.0365930348051017e-05   -1.928682502446495e-06   -1.410810061552643e-05
3.0365930348051017e-05   -1.928682502446495e-06   -1.410810061552643e-05
3.0365930348051017e-05   -1.928682502446495e-06   -1.410810061552643e-05
3.0365930348051017e-05   -1.928682502446495e-06   -1.410810061552643e-05
1.9796807612470536e-05   0.0   -3.0005303346383682e-05
1.9796807612470536e-05   0.0   -3.0005303346383682e-05
1.9796807612470536e-05   0.0   -3.0005303346383682e-05
1.9796807612470536e-05   0.0   -3.0005303346383682e-05
4.085933297451345e-05   -4.5816852467470904e-06   2.3498944423064626e-06
4.085933297451345e-05   -4.5816852467470904e-06   2.3498944423064626e-06
4.085933297451345e-05   -4.5816852467470904e-06   2.3498944423064626e-06
4.085933297451345e-05   -4.5816852467470904e-06   2.3498944423064626e-06
3.899690401126341e-05   0.0   -3.0978830960278777e-05
3.899690401126341e-05   0.0   -3.0978830960278777e-05
3.899690401126341e-05   0.0   -3.0978830960278777e-05
3.899690401126341e-05   0.0   -3.0978830960278777e-05
2.0189235753831153e-05   -3.5542310078057055e-06   2.4998214067917913e-06
2.0189235753831153e-05   -3.5542310078057055e-06   2.4998214067917913e-06
2.0189235753831153e-05   -3.5542310078057055e-06   2.4998214067917913e-06
2.0189235753831153e-05   -3.5542310078057055e-06   2.4998214067917913e-06
2.9396855811867006e-05   -8.11273011579289e-07   -1.4491986821003799e-05
2.9396855811867006e-05   -8.11273011579289e-07   -1.4491986821003799e-05
2.9396855811867006e-05   -8.11273011579289e-07   -1.4491986821003799e-05
2.9396855811867006e-05   -8.11273011579289e-07   -1.4491986821003799e-05
-4.378051475921552e-05   5.585260096377482e-06   -2.880669767061883e-05
-4.378051475921552e-05   5.585260096377482e-06   -2.880669767061883e-05
-4.378051475921552e-05   5.585260096377482e-06   -2.880669767061883e-05