<?xml version="1.0"?> 
<VTKFile type="UnstructuredGrid"> 
   <UnstructuredGrid> 
      <Piece NumberOfPoints="6000"  NumberOfCells="1500">  
          <Points>  
             <DataArray type="Float64" NumberOfComponents="3" format="ascii">   
-500.0   0.0   0.0
-450.0   0.0   0.0
-500.0   30.0   0.0
-500.0   0.0   16.666666666666668
-450.0   0.0   0.0
-450.0   30.0   0.0
-500.0   30.0   0.0
-450.0   30.0   16.666666666666668
-500.0   0.0   16.666666666666668
-500.0   30.0   16.666666666666668
-450.0   30.0   16.666666666666668
-500.0   30.0   0.0
-500.0   0.0   16.666666666666668
-450.0   30.0   16.666666666666668
-450.0   0.0   16.666666666666668
-450.0   0.0   0.0
-500.0   0.0   16.666666666666668
-450.0   30.0   16.666666666666668
-450.0   0.0   0.0
-500.0   30.0   0.0
-500.0   0.0   16.666666666666668
-450.0   0.0   16.666666666666668
-500.0   30.0   16.666666666666668
-500.0   0.0   33.333333333333336
-450.0   0.0   16.666666666666668
-450.0   30.0   16.666666666666668
-500.0   30.0   16.666666666666668
-450.0   30.0   33.333333333333336
-500.0   0.0   33.333333333333336
-500.0   30.0   33.333333333333336
-450.0   30.0   33.333333333333336
-500.0   30.0   16.666666666666668
-500.0   0.0   33.333333333333336
-450.0   30.0   33.333333333333336
-450.0   0.0   33.333333333333336
-450.0   0.0   16.666666666666668
-500.0   0.0   33.333333333333336
-450.0   30.0   33.333333333333336
-450.0   0.0   16.666666666666668
-500.0   30.0   16.666666666666668
-500.0   0.0   33.333333333333336
-450.0   0.0   33.333333333333336
-500.0   30.0   33.333333333333336
-500.0   0.0   50.0
-450.0   0.0   33.333333333333336
-450.0   30.0   33.333333333333336
-500.0   30.0   33.333333333333336
-450.0   30.0   50.0
-500.0   0.0   50.0
-500.0   30.0   50.0
-450.0   30.0   50.0
-500.0   30.0   33.333333333333336
-500.0   0.0   50.0
-450.0   30.0   50.0
-450.0   0.0   50.0
-450.0   0.0   33.333333333333336
-500.0   0.0   50.0
-450.0   30.0   50.0
-450.0   0.0   33.333333333333336
-500.0   30.0   33.333333333333336
-500.0   30.0   0.0
-450.0   30.0   0.0
-500.0   60.0   0.0
-500.0   30.0   16.666666666666668
-450.0   30.0   0.0
-450.0   60.0   0.0
-500.0   60.0   0.0
-450.0   60.0   16.666666666666668
-500.0   30.0   16.666666666666668
-500.0   60.0   16.666666666666668
-450.0   60.0   16.666666666666668
-500.0   60.0   0.0
-500.0   30.0   16.666666666666668
-450.0   60.0   16.666666666666668
-450.0   30.0   16.666666666666668
-450.0   30.0   0.0
-500.0   30.0   16.666666666666668
-450.0   60.0   16.666666666666668
-450.0   30.0   0.0
-500.0   60.0   0.0
-500.0   30.0   16.666666666666668
-450.0   30.0   16.666666666666668
-500.0   60.0   16.666666666666668
-500.0   30.0   33.333333333333336
-450.0   30.0   16.666666666666668
-450.0   60.0   16.666666666666668
-500.0   60.0   16.666666666666668
-450.0   60.0   33.333333333333336
-500.0   30.0   33.333333333333336
-500.0   60.0   33.333333333333336
-450.0   60.0   33.333333333333336
-500.0   60.0   16.666666666666668
-500.0   30.0   33.333333333333336
-450.0   60.0   33.333333333333336
-450.0   30.0   33.333333333333336
-450.0   30.0   16.666666666666668
-500.0   30.0   33.333333333333336
-450.0   60.0   33.333333333333336
-450.0   30.0   16.666666666666668
-500.0   60.0   16.666666666666668
-500.0   30.0   33.333333333333336
-450.0   30.0   33.333333333333336
-500.0   60.0   33.333333333333336
-500.0   30.0   50.0
-450.0   30.0   33.333333333333336
-450.0   60.0   33.333333333333336
-500.0   60.0   33.333333333333336
-450.0   60.0   50.0
-500.0   30.0   50.0
-500.0   60.0   50.0
-450.0   60.0   50.0
-500.0   60.0   33.333333333333336
-500.0   30.0   50.0
-450.0   60.0   50.0
-450.0   30.0   50.0
-450.0   30.0   33.333333333333336
-500.0   30.0   50.0
-450.0   60.0   50.0
-450.0   30.0   33.333333333333336
-500.0   60.0   33.333333333333336
-500.0   60.0   0.0
-450.0   60.0   0.0
-500.0   90.0   0.0
-500.0   60.0   16.666666666666668
-450.0   60.0   0.0
-450.0   90.0   0.0
-500.0   90.0   0.0
-450.0   90.0   16.666666666666668
-500.0   60.0   16.666666666666668
-500.0   90.0   16.666666666666668
-450.0   90.0   16.666666666666668
-500.0   90.0   0.0
-500.0   60.0   16.666666666666668
-450.0   90.0   16.666666666666668
-450.0   60.0   16.666666666666668
-450.0   60.0   0.0
-500.0   60.0   16.666666666666668
-450.0   90.0   16.666666666666668
-450.0   60.0   0.0
-500.0   90.0   0.0
-500.0   60.0   16.666666666666668
-450.0   60.0   16.666666666666668
-500.0   90.0   16.666666666666668
-500.0   60.0   33.333333333333336
-450.0   60.0   16.666666666666668
-450.0   90.0   16.666666666666668
-500.0   90.0   16.666666666666668
-450.0   90.0   33.333333333333336
-500.0   60.0   33.333333333333336
-500.0   90.0   33.333333333333336
-450.0   90.0   33.333333333333336
-500.0   90.0   16.666666666666668
-500.0   60.0   33.333333333333336
-450.0   90.0   33.333333333333336
-450.0   60.0   33.333333333333336
-450.0   60.0   16.666666666666668
-500.0   60.0   33.333333333333336
-450.0   90.0   33.333333333333336
-450.0   60.0   16.666666666666668
-500.0   90.0   16.666666666666668
-500.0   60.0   33.333333333333336
-450.0   60.0   33.333333333333336
-500.0   90.0   33.333333333333336
-500.0   60.0   50.0
-450.0   60.0   33.333333333333336
-450.0   90.0   33.333333333333336
-500.0   90.0   33.333333333333336
-450.0   90.0   50.0
-500.0   60.0   50.0
-500.0   90.0   50.0
-450.0   90.0   50.0
-500.0   90.0   33.333333333333336
-500.0   60.0   50.0
-450.0   90.0   50.0
-450.0   60.0   50.0
-450.0   60.0   33.333333333333336
-500.0   60.0   50.0
-450.0   90.0   50.0
-450.0   60.0   33.333333333333336
-500.0   90.0   33.333333333333336
-500.0   90.0   0.0
-450.0   90.0   0.0
-500.0   120.0   0.0
-500.0   90.0   16.666666666666668
-450.0   90.0   0.0
-450.0   120.0   0.0
-500.0   120.0   0.0
-450.0   120.0   16.666666666666668
-500.0   90.0   16.666666666666668
-500.0   120.0   16.666666666666668
-450.0   120.0   16.666666666666668
-500.0   120.0   0.0
-500.0   90.0   16.666666666666668
-450.0   120.0   16.666666666666668
-450.0   90.0   16.666666666666668
-450.0   90.0   0.0
-500.0   90.0   16.666666666666668
-450.0   120.0   16.666666666666668
-450.0   90.0   0.0
-500.0   120.0   0.0
-500.0   90.0   16.666666666666668
-450.0   90.0   16.666666666666668
-500.0   120.0   16.666666666666668
-500.0   90.0   33.333333333333336
-450.0   90.0   16.666666666666668
-450.0   120.0   16.666666666666668
-500.0   120.0   16.666666666666668
-450.0   120.0   33.333333333333336
-500.0   90.0   33.333333333333336
-500.0   120.0   33.333333333333336
-450.0   120.0   33.333333333333336
-500.0   120.0   16.666666666666668
-500.0   90.0   33.333333333333336
-450.0   120.0   33.333333333333336
-450.0   90.0   33.333333333333336
-450.0   90.0   16.666666666666668
-500.0   90.0   33.333333333333336
-450.0   120.0   33.333333333333336
-450.0   90.0   16.666666666666668
-500.0   120.0   16.666666666666668
-500.0   90.0   33.333333333333336
-450.0   90.0   33.333333333333336
-500.0   120.0   33.333333333333336
-500.0   90.0   50.0
-450.0   90.0   33.333333333333336
-450.0   120.0   33.333333333333336
-500.0   120.0   33.333333333333336
-450.0   120.0   50.0
-500.0   90.0   50.0
-500.0   120.0   50.0
-450.0   120.0   50.0
-500.0   120.0   33.333333333333336
-500.0   90.0   50.0
-450.0   120.0   50.0
-450.0   90.0   50.0
-450.0   90.0   33.333333333333336
-500.0   90.0   50.0
-450.0   120.0   50.0
-450.0   90.0   33.333333333333336
-500.0   120.0   33.333333333333336
-500.0   120.0   0.0
-450.0   120.0   0.0
-500.0   150.0   0.0
-500.0   120.0   16.666666666666668
-450.0   120.0   0.0
-450.0   150.0   0.0
-500.0   150.0   0.0
-450.0   150.0   16.666666666666668
-500.0   120.0   16.666666666666668
-500.0   150.0   16.666666666666668
-450.0   150.0   16.666666666666668
-500.0   150.0   0.0
-500.0   120.0   16.666666666666668
-450.0   150.0   16.666666666666668
-450.0   120.0   16.666666666666668
-450.0   120.0   0.0
-500.0   120.0   16.666666666666668
-450.0   150.0   16.666666666666668
-450.0   120.0   0.0
-500.0   150.0   0.0
-500.0   120.0   16.666666666666668
-450.0   120.0   16.666666666666668
-500.0   150.0   16.666666666666668
-500.0   120.0   33.333333333333336
-450.0   120.0   16.666666666666668
-450.0   150.0   16.666666666666668
-500.0   150.0   16.666666666666668
-450.0   150.0   33.333333333333336
-500.0   120.0   33.333333333333336
-500.0   150.0   33.333333333333336
-450.0   150.0   33.333333333333336
-500.0   150.0   16.666666666666668
-500.0   120.0   33.333333333333336
-450.0   150.0   33.333333333333336
-450.0   120.0   33.333333333333336
-450.0   120.0   16.666666666666668
-500.0   120.0   33.333333333333336
-450.0   150.0   33.333333333333336
-450.0   120.0   16.666666666666668
-500.0   150.0   16.666666666666668
-500.0   120.0   33.333333333333336
-450.0   120.0   33.333333333333336
-500.0   150.0   33.333333333333336
-500.0   120.0   50.0
-450.0   120.0   33.333333333333336
-450.0   150.0   33.333333333333336
-500.0   150.0   33.333333333333336
-450.0   150.0   50.0
-500.0   120.0   50.0
-500.0   150.0   50.0
-450.0   150.0   50.0
-500.0   150.0   33.333333333333336
-500.0   120.0   50.0
-450.0   150.0   50.0
-450.0   120.0   50.0
-450.0   120.0   33.333333333333336
-500.0   120.0   50.0
-450.0   150.0   50.0
-450.0   120.0   33.333333333333336
-500.0   150.0   33.333333333333336
-450.0   0.0   0.0
-400.0   0.0   0.0
-450.0   30.0   0.0
-450.0   0.0   16.666666666666668
-400.0   0.0   0.0
-400.0   30.0   0.0
-450.0   30.0   0.0
-400.0   30.0   16.666666666666668
-450.0   0.0   16.666666666666668
-450.0   30.0   16.666666666666668
-400.0   30.0   16.666666666666668
-450.0   30.0   0.0
-450.0   0.0   16.666666666666668
-400.0   30.0   16.666666666666668
-400.0   0.0   16.666666666666668
-400.0   0.0   0.0
-450.0   0.0   16.666666666666668
-400.0   30.0   16.666666666666668
-400.0   0.0   0.0
-450.0   30.0   0.0
-450.0   0.0   16.666666666666668
-400.0   0.0   16.666666666666668
-450.0   30.0   16.666666666666668
[...]
          <PointData>  
             <DataArray type="Float64" NumberOfComponents="3" Name="Strains" format="ascii">   
-3.804594846542169e-05   0.0   -2.512614045984636e-05
-3.804594846542169e-05   0.0   -2.512614045984636e-05
-3.804594846542169e-05   0.0   -2.512614045984636e-05
-3.804594846542169e-05   0.0   -2.512614045984636e-05
-2.4193891593192607e-05   4.19399329694874e-06   4.770169720379742e-07
-2.4193891593192607e-05   4.19399329694874e-06   4.770169720379742e-07
-2.4193891593192607e-05   4.19399329694874e-06   4.770169720379742e-07
-2.4193891593192607e-05   4.19399329694874e-06   4.770169720379742e-07
-2.3704772803599358e-05   0.0   -2.3734733555815016e-05
-2.3704772803599358e-05   0.0   -2.3734733555815016e-05
-2.3704772803599358e-05   0.0   -2.3734733555815016e-05
-2.3704772803599358e-05   0.0   -2.3734733555815016e-05
-3.980372581660258e-05   5.04291442663879e-06   7.110614320718594e-08
-3.980372581660258e-05   5.04291442663879e-06   7.110614320718594e-08
-3.980372581660258e-05   5.04291442663879e-06   7.110614320718594e-08
-3.980372581660258e-05   5.04291442663879e-06   7.110614320718594e-08
-3.087536063451047e-05   1.1595057533594533e-06   -1.2479457289645377e-05
-3.087536063451047e-05   1.1595057533594533e-06   -1.2479457289645377e-05
-3.087536063451047e-05   1.1595057533594533e-06   -1.2479457289645377e-05
-3.087536063451047e-05   1.1595057533594533e-06   -1.2479457289645377e-05
-3.9803725816602646e-05   0.0   -2.6760482211798294e-05
-3.9803725816602646e-05   0.0   -2.6760482211798294e-05
-3.9803725816602646e-05   0.0   -2.6760482211798294e-05
-3.9803725816602646e-05   0.0   -2.6760482211798294e-05
-2.3704772803599358e-05   5.042914426638797e-06   3.0968547991904545e-06
-2.3704772803599358e-05   5.042914426638797e-06   3.0968547991904545e-06
-2.3704772803599358e-05   5.042914426638797e-06   3.0968547991904545e-06
-2.3704772803599358e-05   5.042914426638797e-06   3.0968547991904545e-06
-2.3760117061588145e-05   0.0   -2.431257908917824e-05
-2.3760117061588145e-05   0.0   -2.431257908917824e-05
-2.3760117061588145e-05   0.0   -2.431257908917824e-05
-2.3760117061588145e-05   0.0   -2.431257908917824e-05
-4.1032912810293914e-05   5.405421547778631e-06   1.2321608966643096e-06
-4.1032912810293914e-05   5.405421547778631e-06   1.2321608966643096e-06
-4.1032912810293914e-05   5.405421547778631e-06   1.2321608966643096e-06
-4.1032912810293914e-05   5.405421547778631e-06   1.2321608966643096e-06
-3.178192143909534e-05   2.0399192688500456e-06   -1.2166856687976148e-05
-3.178192143909534e-05   2.0399192688500456e-06   -1.2166856687976148e-05
-3.178192143909534e-05   2.0399192688500456e-06   -1.2166856687976148e-05
-3.178192143909534e-05   2.0399192688500456e-06   -1.2166856687976148e-05
-4.103291281029398e-05   0.0   -2.755583201784542e-05
-4.103291281029398e-05   0.0   -2.755583201784542e-05
-4.103291281029398e-05   0.0   -2.755583201784542e-05
-4.103291281029398e-05   0.0   -2.755583201784542e-05
-2.3760117061588145e-05   5.405421547778638e-06   4.4754138253314855e-06
-2.3760117061588145e-05   5.405421547778638e-06   4.4754138253314855e-06
-2.3760117061588145e-05   5.405421547778638e-06   4.4754138253314855e-06
-2.3760117061588145e-05   5.405421547778638e-06   4.4754138253314855e-06
-2.3734656170005385e-05   0.0   -2.44628769408994e-05
-2.3734656170005385e-05   0.0   -2.44628769408994e-05
-2.3734656170005385e-05   0.0   -2.44628769408994e-05
-2.3734656170005385e-05   0.0   -2.44628769408994e-05
-4.369234006006342e-05   6.166310537511146e-06   5.100143220024072e-06
-4.369234006006342e-05   6.166310537511146e-06   5.100143220024072e-06
-4.369234006006342e-05   6.166310537511146e-06   5.100143220024072e-06
-4.369234006006342e-05   6.166310537511146e-06   5.100143220024072e-06
-3.238378449014963e-05   2.5774625641216793e-06   -1.1594140612465218e-05
-3.238378449014963e-05   2.5774625641216793e-06   -1.1594140612465218e-05
-3.238378449014963e-05   2.5774625641216793e-06   -1.1594140612465218e-05
-3.238378449014963e-05   2.5774625641216793e-06   -1.1594140612465218e-05
-2.4193891593192648e-05   0.0   -2.2609744481677115e-05
-2.4193891593192648e-05   0.0   -2.2609744481677115e-05
-2.4193891593192648e-05   0.0   -2.2609744481677115e-05
-2.4193891593192648e-05   0.0   -2.2609744481677115e-05
-1.1031336526616036e-05   1.5341847438443774e-06   2.4835814225718887e-07
-1.1031336526616036e-05   1.5341847438443774e-06   2.4835814225718887e-07
-1.1031336526616036e-05   1.5341847438443774e-06   2.4835814225718887e-07
-1.1031336526616036e-05   1.5341847438443774e-06   2.4835814225718887e-07
-1.0598567858863968e-05   0.0   -2.2420106294875834e-05
-1.0598567858863968e-05   0.0   -2.2420106294875834e-05
-1.0598567858863968e-05   0.0   -2.2420106294875834e-05
-1.0598567858863968e-05   0.0   -2.2420106294875834e-05
-2.3704772803599358e-05   2.191045434898641e-06   -1.8910586479226993e-06
-2.3704772803599358e-05   2.191045434898641e-06   -1.8910586479226993e-06
-2.3704772803599358e-05   2.191045434898641e-06   -1.8910586479226993e-06
-2.3704772803599358e-05   2.191045434898641e-06   -1.8910586479226993e-06
-1.7396229726028277e-05   1.580318223344006e-07   -1.1185488943002546e-05
-1.7396229726028277e-05   1.580318223344006e-07   -1.1185488943002546e-05
-1.7396229726028277e-05   1.580318223344006e-07   -1.1185488943002546e-05
-1.7396229726028277e-05   1.580318223344006e-07   -1.1185488943002546e-05
-2.3704772803599338e-05   0.0   -2.3734733555814995e-05
-2.3704772803599338e-05   0.0   -2.3734733555814995e-05
-2.3704772803599338e-05   0.0   -2.3734733555814995e-05
-2.3704772803599338e-05   0.0   -2.3734733555814995e-05
-1.0598567858863968e-05   2.191045434898641e-06   -5.764313869835173e-07
-1.0598567858863968e-05   2.191045434898641e-06   -5.764313869835173e-07
-1.0598567858863968e-05   2.191045434898641e-06   -5.764313869835173e-07
-1.0598567858863968e-05   2.191045434898641e-06   -5.764313869835173e-07
-1.0350807716189105e-05   0.0   -2.2699159367695006e-05
-1.0350807716189105e-05   0.0   -2.2699159367695006e-05
-1.0350807716189105e-05   0.0   -2.2699159367695006e-05
-1.0350807716189105e-05   0.0   -2.2699159367695006e-05
-2.3760117061588145e-05   2.68903286913872e-06   -1.963730180179837e-06
-2.3760117061588145e-05   2.68903286913872e-06   -1.963730180179837e-06
-2.3760117061588145e-05   2.68903286913872e-06   -1.963730180179837e-06
-2.3760117061588145e-05   2.68903286913872e-06   -1.963730180179837e-06
-1.7027790259894197e-05   8.629784901000072e-07   -1.2088642222246427e-05
-1.7027790259894197e-05   8.629784901000072e-07   -1.2088642222246427e-05
-1.7027790259894197e-05   8.629784901000072e-07   -1.2088642222246427e-05
-1.7027790259894197e-05   8.629784901000072e-07   -1.2088642222246427e-05
-2.3760117061588145e-05   0.0   -2.431257908917824e-05
-2.3760117061588145e-05   0.0   -2.431257908917824e-05
-2.3760117061588145e-05   0.0   -2.431257908917824e-05
-2.3760117061588145e-05   0.0   -2.431257908917824e-05
-1.0350807716189105e-05   2.68903286913872e-06   -3.503104586966078e-07
-1.0350807716189105e-05   2.68903286913872e-06   -3.503104586966078e-07
-1.0350807716189105e-05   2.68903286913872e-06   -3.503104586966078e-07
-1.0350807716189105e-05   2.68903286913872e-06   -3.503104586966078e-07
-1.0123301742570779e-05   0.0   -2.2583837067842657e-05
-1.0123301742570779e-05   0.0   -2.2583837067842657e-05
-1.0123301742570779e-05   0.0   -2.2583837067842657e-05
-1.0123301742570779e-05   0.0   -2.2583837067842657e-05
-2.3734656170005324e-05   3.1317331217612025e-06   -1.7772862285083836e-06
-2.3734656170005324e-05   3.1317331217612025e-06   -1.7772862285083836e-06
-2.3734656170005324e-05   3.1317331217612025e-06   -1.7772862285083836e-06
-2.3734656170005324e-05   3.1317331217612025e-06   -1.7772862285083836e-06
-1.6941709402079458e-05   1.4406183511129684e-06   -1.2084195312662644e-05
-1.6941709402079458e-05   1.4406183511129684e-06   -1.2084195312662644e-05
-1.6941709402079458e-05   1.4406183511129684e-06   -1.2084195312662644e-05
-1.6941709402079458e-05   1.4406183511129684e-06   -1.2084195312662644e-05
-1.1031336526616054e-05   0.0   -2.1689233635370485e-05
-1.1031336526616054e-05   0.0   -2.1689233635370485e-05
-1.1031336526616054e-05   0.0   -2.1689233635370485e-05
-1.1031336526616054e-05   0.0   -2.1689233635370485e-05
1.3949707477919051e-06   -1.9956753938014569e-07   -1.0984620349852915e-06
1.3949707477919051e-06   -1.9956753938014569e-07   -1.0984620349852915e-06
1.3949707477919051e-06   -1.9956753938014569e-07   -1.0984620349852915e-06
1.3949707477919051e-06   -1.9956753938014569e-07   -1.0984620349852915e-06
1.6765405963481998e-06   0.0   -2.218624733319264e-05
1.6765405963481998e-06   0.0   -2.218624733319264e-05
1.6765405963481998e-06   0.0   -2.218624733319264e-05
1.6765405963481998e-06   0.0   -2.218624733319264e-05
-1.059856785886395e-05   3.897649361385254e-07   -1.9615922028555442e-06
-1.059856785886395e-05   3.897649361385254e-07   -1.9615922028555442e-06
-1.059856785886395e-05   3.897649361385254e-07   -1.9615922028555442e-06
-1.059856785886395e-05   3.897649361385254e-07   -1.9615922028555442e-06
-4.677397965133908e-06   -4.141780815185254e-07   -1.134784288181134e-05
-4.677397965133908e-06   -4.141780815185254e-07   -1.134784288181134e-05
-4.677397965133908e-06   -4.141780815185254e-07   -1.134784288181134e-05
-4.677397965133908e-06   -4.141780815185254e-07   -1.134784288181134e-05
-1.0598567858863968e-05   0.0   -2.2420106294875834e-05
-1.0598567858863968e-05   0.0   -2.2420106294875834e-05
-1.0598567858863968e-05   0.0   -2.2420106294875834e-05
-1.0598567858863968e-05   0.0   -2.2420106294875834e-05
1.6765405963482026e-06   3.897649361385254e-07   -1.7277332411724298e-06
1.6765405963482026e-06   3.897649361385254e-07   -1.7277332411724298e-06
1.6765405963482026e-06   3.897649361385254e-07   -1.7277332411724298e-06
1.6765405963482026e-06   3.897649361385254e-07   -1.7277332411724298e-06
1.9002943516374317e-06   0.0   -2.2153622868980578e-05
1.9002943516374317e-06   0.0   -2.2153622868980578e-05
1.9002943516374317e-06   0.0   -2.2153622868980578e-05
1.9002943516374317e-06   0.0   -2.2153622868980578e-05
-1.035080771618907e-05   9.092274978573183e-07   -2.280655921317439e-06
-1.035080771618907e-05   9.092274978573183e-07   -2.280655921317439e-06
-1.035080771618907e-05   9.092274978573183e-07   -2.280655921317439e-06
-1.035080771618907e-05   9.092274978573183e-07   -2.280655921317439e-06
-4.349136753613259e-06   2.220695215793492e-07   -1.1871146073177026e-05
-4.349136753613259e-06   2.220695215793492e-07   -1.1871146073177026e-05
-4.349136753613259e-06   2.220695215793492e-07   -1.1871146073177026e-05
-4.349136753613259e-06   2.220695215793492e-07   -1.1871146073177026e-05
-1.0350807716189105e-05   0.0   -2.2699159367695006e-05
-1.0350807716189105e-05   0.0   -2.2699159367695006e-05
-1.0350807716189105e-05   0.0   -2.2699159367695006e-05
-1.0350807716189105e-05   0.0   -2.2699159367695006e-05
1.900294351637435e-06   9.092274978573115e-07   -1.7351194226030545e-06
1.900294351637435e-06   9.092274978573115e-07   -1.7351194226030545e-06
1.900294351637435e-06   9.092274978573115e-07   -1.7351194226030545e-06
1.900294351637435e-06   9.092274978573115e-07   -1.7351194226030545e-06
2.1975361480567177e-06   0.0   -2.1677709060048245e-05
2.1975361480567177e-06   0.0   -2.1677709060048245e-05
2.1975361480567177e-06   0.0   -2.1677709060048245e-05
2.1975361480567177e-06   0.0   -2.1677709060048245e-05
-1.0123301742570754e-05   1.5102133463239828e-06   -2.049107250130157e-06
-1.0123301742570754e-05   1.5102133463239828e-06   -2.049107250130157e-06
-1.0123301742570754e-05   1.5102133463239828e-06   -2.049107250130157e-06
-1.0123301742570754e-05   1.5102133463239828e-06   -2.049107250130157e-06
-4.076635784066184e-06   8.512085897056031e-07   -1.1731480993666761e-05
-4.076635784066184e-06   8.512085897056031e-07   -1.1731480993666761e-05
-4.076635784066184e-06   8.512085897056031e-07   -1.1731480993666761e-05
-4.076635784066184e-06   8.512085897056031e-07   -1.1731480993666761e-05
1.3949707477919075e-06   0.0   -2.1808974158998577e-05
1.3949707477919075e-06   0.0   -2.1808974158998577e-05
1.3949707477919075e-06   0.0   -2.1808974158998577e-05
1.3949707477919075e-06   0.0   -2.1808974158998577e-05
1.4893329481921407e-05   -1.7468960589475885e-06   -3.598472374846143e-07
1.4893329481921407e-05   -1.7468960589475885e-06   -3.598472374846143e-07
1.4893329481921407e-05   -1.7468960589475885e-06   -3.598472374846143e-07
1.4893329481921407e-05   -1.7468960589475885e-06   -3.598472374846143e-07
1.493404020612318e-05   0.0   -2.2974458247248186e-05
1.493404020612318e-05   0.0   -2.2974458247248186e-05
1.493404020612318e-05   0.0   -2.2974458247248186e-05
1.493404020612318e-05   0.0   -2.2974458247248186e-05
1.6765405963482056e-06   -1.313684856759105e-06   -9.041465023443035e-08
1.6765405963482056e-06   -1.313684856759105e-06   -9.041465023443035e-08
1.6765405963482056e-06   -1.313684856759105e-06   -9.041465023443035e-08
1.6765405963482056e-06   -1.313684856759105e-06   -9.041465023443035e-08
8.164505476957544e-06   -9.712367402080084e-07   -1.1109158321180645e-05
8.164505476957544e-06   -9.712367402080084e-07   -1.1109158321180645e-05
8.164505476957544e-06   -9.712367402080084e-07   -1.1109158321180645e-05
8.164505476957544e-06   -9.712367402080084e-07   -1.1109158321180645e-05
1.6765405963482056e-06   0.0   -2.218624733319272e-05
1.6765405963482056e-06   0.0   -2.218624733319272e-05
1.6765405963482056e-06   0.0   -2.218624733319272e-05
1.6765405963482056e-06   0.0   -2.218624733319272e-05
1.493404020612318e-05   -1.313684856759105e-06   -8.786255642898974e-07
1.493404020612318e-05   -1.313684856759105e-06   -8.786255642898974e-07
1.493404020612318e-05   -1.313684856759105e-06   -8.786255642898974e-07
1.493404020612318e-05   -1.313684856759105e-06   -8.786255642898974e-07
1.4882341193301525e-05   0.0   -2.2646493588348853e-05
1.4882341193301525e-05   0.0   -2.2646493588348853e-05
1.4882341193301525e-05   0.0   -2.2646493588348853e-05
1.4882341193301525e-05   0.0   -2.2646493588348853e-05
1.900294351637435e-06   -8.214511989470581e-07   -5.168781328738051e-07
1.900294351637435e-06   -8.214511989470581e-07   -5.168781328738051e-07
1.900294351637435e-06   -8.214511989470581e-07   -5.168781328738051e-07
1.900294351637435e-06   -8.214511989470581e-07   -5.168781328738051e-07
8.279440894824865e-06   -3.8353854596344595e-07   -1.1411536629976347e-05
8.279440894824865e-06   -3.8353854596344595e-07   -1.1411536629976347e-05
8.279440894824865e-06   -3.8353854596344595e-07   -1.1411536629976347e-05
8.279440894824865e-06   -3.8353854596344595e-07   -1.1411536629976347e-05
1.9002943516374334e-06   0.0   -2.21536228689806e-05
1.9002943516374334e-06   0.0   -2.21536228689806e-05
1.9002943516374334e-06   0.0   -2.21536228689806e-05
1.9002943516374334e-06   0.0   -2.21536228689806e-05
1.4882341193301525e-05   -8.214511989470581e-07   -1.00974885224204e-06
1.4882341193301525e-05   -8.214511989470581e-07   -1.00974885224204e-06
1.4882341193301525e-05   -8.214511989470581e-07   -1.00974885224204e-06
1.4882341193301525e-05   -8.214511989470581e-07   -1.00974885224204e-06
1.5182348856749887e-05   0.0   -2.1774156812794837e-05
1.5182348856749887e-05   0.0   -2.1774156812794837e-05
1.5182348856749887e-05   0.0   -2.1774156812794837e-05
1.5182348856749887e-05   0.0   -2.1774156812794837e-05
2.1975361480567215e-06   -1.6074625457758782e-07   -3.6354545559679085e-08
2.1975361480567215e-06   -1.6074625457758782e-07   -3.6354545559679085e-08
2.1975361480567215e-06   -1.6074625457758782e-07   -3.6354545559679085e-08
2.1975361480567215e-06   -1.6074625457758782e-07   -3.6354545559679085e-08
8.541321604193654e-06   3.162217134881501e-07   -1.0895511086627333e-05
8.541321604193654e-06   3.162217134881501e-07   -1.0895511086627333e-05
8.541321604193654e-06   3.162217134881501e-07   -1.0895511086627333e-05
8.541321604193654e-06   3.162217134881501e-07   -1.0895511086627333e-05
1.4893329481921407e-05   0.0   -2.2857111794367127e-05
1.4893329481921407e-05   0.0   -2.2857111794367127e-05
1.4893329481921407e-05   0.0   -2.2857111794367127e-05
1.4893329481921407e-05   0.0   -2.2857111794367127e-05
3.3699046355807204e-05   -4.437945085597243e-06   5.822982610751039e-06
3.3699046355807204e-05   -4.437945085597243e-06   5.822982610751039e-06
3.3699046355807204e-05   -4.437945085597243e-06   5.822982610751039e-06
3.3699046355807204e-05   -4.437945085597243e-06   5.822982610751039e-06
3.16673238124651e-05   0.0   -2.5235540413053003e-05
3.16673238124651e-05   0.0   -2.5235540413053003e-05
3.16673238124651e-05   0.0   -2.5235540413053003e-05
3.16673238124651e-05   0.0   -2.5235540413053003e-05
1.493404020612318e-05   -3.7684702763413625e-06   4.914347763321677e-06
1.493404020612318e-05   -3.7684702763413625e-06   4.914347763321677e-06
1.493404020612318e-05   -3.7684702763413625e-06   4.914347763321677e-06
1.493404020612318e-05   -3.7684702763413625e-06   4.914347763321677e-06
2.3280326647193256e-05   -1.9820238489048954e-06   -1.0067997494923646e-05
2.3280326647193256e-05   -1.9820238489048954e-06   -1.0067997494923646e-05
2.3280326647193256e-05   -1.9820238489048954e-06   -1.0067997494923646e-05
2.3280326647193256e-05   -1.9820238489048954e-06   -1.0067997494923646e-05
1.4934040206123168e-05   0.0   -2.2974458247248165e-05
1.4934040206123168e-05   0.0   -2.2974458247248165e-05
1.4934040206123168e-05   0.0   -2.2974458247248165e-05
1.4934040206123168e-05   0.0   -2.2974458247248165e-05
3.166732381246499e-05   -3.768470276341349e-06   2.6532655975168427e-06
3.166732381246499e-05   -3.768470276341349e-06   2.6532655975168427e-06
3.166732381246499e-05   -3.768470276341349e-06   2.6532655975168427e-06
3.166732381246499e-05   -3.768470276341349e-06   2.6532655975168427e-06
3.073595362254923e-05   0.0   -2.471101412605747e-05
3.073595362254923e-05   0.0   -2.471101412605747e-05
3.073595362254923e-05   0.0   -2.471101412605747e-05
3.073595362254923e-05   0.0   -2.471101412605747e-05
1.4882341193301525e-05   -3.440867562847694e-06   3.7761937937306584e-06
1.4882341193301525e-05   -3.440867562847694e-06   3.7761937937306584e-06
1.4882341193301525e-05   -3.440867562847694e-06   3.7761937937306584e-06
1.4882341193301525e-05   -3.440867562847694e-06   3.7761937937306584e-06
2.283499691433619e-05   -1.447129899007737e-06   -1.0674475006297764e-05
2.283499691433619e-05   -1.447129899007737e-06   -1.0674475006297764e-05
2.283499691433619e-05   -1.447129899007737e-06   -1.0674475006297764e-05
2.283499691433619e-05   -1.447129899007737e-06   -1.0674475006297764e-05
1.4882341193301525e-05   0.0   -2.2646493588348853e-05
1.4882341193301525e-05   0.0   -2.2646493588348853e-05
1.4882341193301525e-05   0.0   -2.2646493588348853e-05
1.4882341193301525e-05   0.0   -2.2646493588348853e-05
3.073595362254913e-05   -3.4408675628476803e-06   1.711673256022036e-06
3.073595362254913e-05   -3.4408675628476803e-06   1.711673256022036e-06
3.073595362254913e-05   -3.4408675628476803e-06   1.711673256022036e-06
3.073595362254913e-05   -3.4408675628476803e-06   1.711673256022036e-06
2.934083541868075e-05   0.0   -2.3373452197185995e-05
2.934083541868075e-05   0.0   -2.3373452197185995e-05
2.934083541868075e-05   0.0   -2.3373452197185995e-05
2.934083541868075e-05   0.0   -2.3373452197185995e-05
1.5182348856749887e-05   -2.665492307318666e-06   1.8233207904233515e-06
1.5182348856749887e-05   -2.665492307318666e-06   1.8233207904233515e-06
1.5182348856749887e-05   -2.665492307318666e-06   1.8233207904233515e-06
1.5182348856749887e-05   -2.665492307318666e-06   1.8233207904233515e-06
2.211158830599116e-05   -6.057988406976538e-07   -1.0961227704951371e-05
2.211158830599116e-05   -6.057988406976538e-07   -1.0961227704951371e-05
2.211158830599116e-05   -6.057988406976538e-07   -1.0961227704951371e-05
2.211158830599116e-05   -6.057988406976538e-07   -1.0961227704951371e-05
-3.289439692175974e-05   4.193993296948726e-06   -2.1687064399752587e-05
-3.289439692175974e-05   4.193993296948726e-06   -2.1687064399752587e-05