<?xml version="1.0"?> 
<VTKFile type="UnstructuredGrid"> 
   <UnstructuredGrid> 
      <Piece NumberOfPoints="6000"  NumberOfCells="1500">  
          <Points>  
             <DataArray type="Float64" NumberOfComponents="3" format="ascii">   
-500.0   0.0   0.0
-450.0   0.0   0.0
-500.0   30.0   0.0
-500.0   0.0   16.666666666666668
-450.0   0.0   0.0
-450.0   30.0   0.0
-500.0   30.0   0.0
-450.0   30.0   16.666666666666668
-500.0   0.0   16.666666666666668
-500.0   30.0   16.666666666666668
-450.0   30.0   16.666666666666668
-500.0   30.0   0.0
-500.0   0.0   16.666666666666668
-450.0   30.0   16.666666666666668
-450.0   0.0   16.666666666666668
-450.0   0.0   0.0
-500.0   0.0   16.666666666666668
-450.0   30.0   16.666666666666668
-450.0   0.0   0.0
-500.0   30.0   0.0
-500.0   0.0   16.666666666666668
-450.0   0.0   16.666666666666668
-500.0   30.0   16.666666666666668
-500.0   0.0   33.333333333333336
-450.0   0.0   16.666666666666668
-450.0   30.0   16.666666666666668
-500.0   30.0   16.666666666666668
-450.0   30.0   33.333333333333336
-500.0   0.0   33.333333333333336
-500.0   30.0   33.333333333333336
-450.0   30.0   33.333333333333336
-500.0   30.0   16.666666666666668
-500.0   0.0   33.333333333333336
-450.0   30.0   33.333333333333336
-450.0   0.0   33.333333333333336
-450.0   0.0   16.666666666666668
-500.0   0.0   33.333333333333336
-450.0   30.0   33.333333333333336
-450.0   0.0   16.666666666666668
-500.0   30.0   16.666666666666668
-500.0   0.0   33.333333333333336
-450.0   0.0   33.333333333333336
-500.0   30.0   33.333333333333336
-500.0   0.0   50.0
-450.0   0.0   33.333333333333336
-450.0   30.0   33.333333333333336
-500.0   30.0   33.333333333333336
-450.0   30.0   50.0
-500.0   0.0   50.0
-500.0   30.0   50.0
-450.0   30.0   50.0
-500.0   30.0   33.333333333333336
-500.0   0.0   50.0
-450.0   30.0   50.0
-450.0   0.0   50.0
-450.0   0.0   33.333333333333336
-500.0   0.0   50.0
-450.0   30.0   50.0
-450.0   0.0   33.333333333333336
-500.0   30.0   33.333333333333336
-500.0   30.0   0.0
-450.0   30.0   0.0
-500.0   60.0   0.0
-500.0   30.0   16.666666666666668
-450.0   30.0   0.0
-450.0   60.0   0.0
-500.0   60.0   0.0
-450.0   60.0   16.666666666666668
-500.0   30.0   16.666666666666668
-500.0   60.0   16.666666666666668
-450.0   60.0   16.666666666666668
-500.0   60.0   0.0
-500.0   30.0   16.666666666666668
-450.0   60.0   16.666666666666668
-450.0   30.0   16.666666666666668
-450.0   30.0   0.0
-500.0   30.0   16.666666666666668
-450.0   60.0   16.666666666666668
-450.0   30.0   0.0
-500.0   60.0   0.0
-500.0   30.0   16.666666666666668
-450.0   30.0   16.666666666666668
-500.0   60.0   16.666666666666668
-500.0   30.0   33.333333333333336
-450.0   30.0   16.666666666666668
-450.0   60.0   16.666666666666668
-500.0   60.0   16.666666666666668
-450.0   60.0   33.333333333333336
-500.0   30.0   33.333333333333336
-500.0   60.0   33.333333333333336
-450.0   60.0   33.333333333333336
-500.0   60.0   16.666666666666668
-500.0   30.0   33.333333333333336
-450.0   60.0   33.333333333333336
-450.0   30.0   33.333333333333336
-450.0   30.0   16.666666666666668
-500.0   30.0   33.333333333333336
-450.0   60.0   33.333333333333336
-450.0   30.0   16.666666666666668
-500.0   60.0   16.666666666666668
-500.0   30.0   33.333333333333336
-450.0   30.0   33.333333333333336
-500.0   60.0   33.333333333333336
-500.0   30.0   50.0
-450.0   30.0   33.333333333333336
-450.0   60.0   33.333333333333336
-500.0   60.0   33.333333333333336
-450.0   60.0   50.0
-500.0   30.0   50.0
-500.0   60.0   50.0
-450.0   60.0   50.0
-500.0   60.0   33.333333333333336
-500.0   30.0   50.0
-450.0   60.0   50.0
-450.0   30.0   50.0
-450.0   30.0   33.333333333333336
-500.0   30.0   50.0
-450.0   60.0   50.0
-450.0   30.0   33.333333333333336
-500.0   60.0   33.333333333333336
-500.0   60.0   0.0
-450.0   60.0   0.0
-500.0   90.0   0.0
-500.0   60.0   16.666666666666668
-450.0   60.0   0.0
-450.0   90.0   0.0
-500.0   90.0   0.0
-450.0   90.0   16.666666666666668
-500.0   60.0   16.666666666666668
-500.0   90.0   16.666666666666668
-450.0   90.0   16.666666666666668
-500.0   90.0   0.0
-500.0   60.0   16.666666666666668
-450.0   90.0   16.666666666666668
-450.0   60.0   16.666666666666668
-450.0   60.0   0.0
-500.0   60.0   16.666666666666668
-450.0   90.0   16.666666666666668
-450.0   60.0   0.0
-500.0   90.0   0.0
-500.0   60.0   16.666666666666668
-450.0   60.0   16.666666666666668
-500.0   90.0   16.666666666666668
-500.0   60.0   33.333333333333336
-450.0   60.0   16.666666666666668
-450.0   90.0   16.666666666666668
-500.0   90.0   16.666666666666668
-450.0   90.0   33.333333333333336
-500.0   60.0   33.333333333333336
-500.0   90.0   33.333333333333336
-450.0   90.0   33.333333333333336
-500.0   90.0   16.666666666666668
-500.0   60.0   33.333333333333336
-450.0   90.0   33.333333333333336
-450.0   60.0   33.333333333333336
-450.0   60.0   16.666666666666668
-500.0   60.0   33.333333333333336
-450.0   90.0   33.333333333333336
-450.0   60.0   16.666666666666668
-500.0   90.0   16.666666666666668
-500.0   60.0   33.333333333333336
-450.0   60.0   33.333333333333336
-500.0   90.0   33.333333333333336
-500.0   60.0   50.0
-450.0   60.0   33.333333333333336
-450.0   90.0   33.333333333333336
-500.0   90.0   33.333333333333336
-450.0   90.0   50.0
-500.0   60.0   50.0
-500.0   90.0   50.0
-450.0   90.0   50.0
-500.0   90.0   33.333333333333336
-500.0   60.0   50.0
-450.0   90.0   50.0
-450.0   60.0   50.0
-450.0   60.0   33.333333333333336
-500.0   60.0   50.0
-450.0   90.0   50.0
-450.0   60.0   33.333333333333336
-500.0   90.0   33.333333333333336
-500.0   90.0   0.0
-450.0   90.0   0.0
-500.0   120.0   0.0
-500.0   90.0   16.666666666666668
-450.0   90.0   0.0
-450.0   120.0   0.0
-500.0   120.0   0.0
-450.0   120.0   16.666666666666668
-500.0   90.0   16.666666666666668
-500.0   120.0   16.666666666666668
-450.0   120.0   16.666666666666668
-500.0   120.0   0.0
-500.0   90.0   16.666666666666668
-450.0   120.0   16.666666666666668
-450.0   90.0   16.666666666666668
-450.0   90.0   0.0
-500.0   90.0   16.666666666666668
-450.0   120.0   16.666666666666668
-450.0   90.0   0.0
-500.0   120.0   0.0
-500.0   90.0   16.666666666666668
-450.0   90.0   16.666666666666668
-500.0   120.0   16.666666666666668
-500.0   90.0   33.333333333333336
-450.0   90.0   16.666666666666668
-450.0   120.0   16.666666666666668
-500.0   120.0   16.666666666666668
-450.0   120.0   33.333333333333336
-500.0   90.0   33.333333333333336
-500.0   120.0   33.333333333333336
-450.0   120.0   33.333333333333336
-500.0   120.0   16.666666666666668
-500.0   90.0   33.333333333333336
-450.0   120.0   33.333333333333336
-450.0   90.0   33.333333333333336
-450.0   90.0   16.666666666666668
-500.0   90.0   33.333333333333336
-450.0   120.0   33.333333333333336
-450.0   90.0   16.666666666666668
-500.0   120.0   16.666666666666668
-500.0   90.0   33.333333333333336
-450.0   90.0   33.333333333333336
-500.0   120.0   33.333333333333336
-500.0   90.0   50.0
-450.0   90.0   33.333333333333336
-450.0   120.0   33.333333333333336
-500.0   120.0   33.333333333333336
-450.0   120.0   50.0
-500.0   90.0   50.0
-500.0   120.0   50.0
-450.0   120.0   50.0
-500.0   120.0   33.333333333333336
-500.0   90.0   50.0
-450.0   120.0   50.0
-450.0   90.0   50.0
-450.0   90.0   33.333333333333336
-500.0   90.0   50.0
-450.0   120.0   50.0
-450.0   90.0   33.333333333333336
-500.0   120.0   33.333333333333336
-500.0   120.0   0.0
-450.0   120.0   0.0
-500.0   150.0   0.0
-500.0   120.0   16.666666666666668
-450.0   120.0   0.0
-450.0   150.0   0.0
-500.0   150.0   0.0
-450.0   150.0   16.666666666666668
-500.0   120.0   16.666666666666668
-500.0   150.0   16.666666666666668
-450.0   150.0   16.666666666666668
-500.0   150.0   0.0
-500.0   120.0   16.666666666666668
-450.0   150.0   16.666666666666668
-450.0   120.0   16.666666666666668
-450.0   120.0   0.0
-500.0   120.0   16.666666666666668
-450.0   150.0   16.666666666666668
-450.0   120.0   0.0
-500.0   150.0   0.0
-500.0   120.0   16.666666666666668
-450.0   120.0   16.666666666666668
-500.0   150.0   16.666666666666668
-500.0   120.0   33.333333333333336
-450.0   120.0   16.666666666666668
-450.0   150.0   16.666666666666668
-500.0   150.0   16.666666666666668
-450.0   150.0   33.333333333333336
-500.0   120.0   33.333333333333336
-500.0   150.0   33.333333333333336
-450.0   150.0   33.333333333333336
-500.0   150.0   16.666666666666668
-500.0   120.0   33.333333333333336
-450.0   150.0   33.333333333333336
-450.0   120.0   33.333333333333336
-450.0   120.0   16.666666666666668
-500.0   120.0   33.333333333333336
-450.0   150.0   33.333333333333336
-450.0   120.0   16.666666666666668
-500.0   150.0   16.666666666666668
-500.0   120.0   33.333333333333336
-450.0   120.0   33.333333333333336
-500.0   150.0   33.333333333333336
-500.0   120.0   50.0
-450.0   120.0   33.333333333333336
-450.0   150.0   33.333333333333336
-500.0   150.0   33.333333333333336
-450.0   150.0   50.0
-500.0   120.0   50.0
-500.0   150.0   50.0
-450.0   150.0   50.0
-500.0   150.0   33.333333333333336
-500.0   120.0   50.0
-450.0   150.0   50.0
-450.0   120.0   50.0
-450.0   120.0   33.333333333333336
-500.0   120.0   50.0
-450.0   150.0   50.0
-450.0   120.0   33.333333333333336
-500.0   150.0   33.333333333333336
-450.0   0.0   0.0
-400.0   0.0   0.0
-450.0   30.0   0.0
-450.0   0.0   16.666666666666668
-400.0   0.0   0.0
-400.0   30.0   0.0
-450.0   30.0   0.0
-400.0   30.0   16.666666666666668
-450.0   0.0   16.666666666666668
-450.0   30.0   16.666666666666668
-400.0   30.0   16.666666666666668
-450.0   30.0   0.0
-450.0   0.0   16.666666666666668
-400.0   30.0   16.666666666666668
-400.0   0.0   16.666666666666668
-400.0   0.0   0.0
-450.0   0.0   16.666666666666668
-400.0   30.0   16.666666666666668
-400.0   0.0   0.0
-450.0   30.0   0.0
-450.0   0.0   16.666666666666668
-400.0   0.0   16.666666666666668
-450.0   30.0   16.666666666666668
[...]
          <PointData>  
             <DataArray type="Float64" NumberOfComponents="3" Name="Strains" format="ascii">   
-8.811470777282397e-05   0.0   -5.784762011345268e-05
-8.811470777282397e-05   0.0   -5.784762011345268e-05
-8.811470777282397e-05   0.0   -5.784762011345268e-05
-8.811470777282397e-05   0.0   -5.784762011345268e-05
-5.606733686609815e-05   9.759060494663531e-06   1.4201010278883628e-06
-5.606733686609815e-05   9.759060494663531e-06   1.4201010278883628e-06
-5.606733686609815e-05   9.759060494663531e-06   1.4201010278883628e-06
-5.606733686609815e-05   9.759060494663531e-06   1.4201010278883628e-06
-5.495745030111011e-05   0.0   -5.4599083097141415e-05
-5.495745030111011e-05   0.0   -5.4599083097141415e-05
-5.495745030111011e-05   0.0   -5.4599083097141415e-05
-5.495745030111011e-05   0.0   -5.4599083097141415e-05
-9.221490587969048e-05   1.1712495372744207e-05   4.691789768462677e-07
-9.221490587969048e-05   1.1712495372744207e-05   4.691789768462677e-07
-9.221490587969048e-05   1.1712495372744207e-05   4.691789768462677e-07
-9.221490587969048e-05   1.1712495372744207e-05   4.691789768462677e-07
-7.153607903696691e-05   2.7071141802593836e-06   -2.859230371220209e-05
-7.153607903696691e-05   2.7071141802593836e-06   -2.859230371220209e-05
-7.153607903696691e-05   2.7071141802593836e-06   -2.859230371220209e-05
-7.153607903696691e-05   2.7071141802593836e-06   -2.859230371220209e-05
-9.221490587969063e-05   0.0   -6.162658032078796e-05
-9.221490587969063e-05   0.0   -6.162658032078796e-05
-9.221490587969063e-05   0.0   -6.162658032078796e-05
-9.221490587969063e-05   0.0   -6.162658032078796e-05
-5.495745030111011e-05   1.1712495372744234e-05   7.4966762004928e-06
-5.495745030111011e-05   1.1712495372744234e-05   7.4966762004928e-06
-5.495745030111011e-05   1.1712495372744234e-05   7.4966762004928e-06
-5.495745030111011e-05   1.1712495372744234e-05   7.4966762004928e-06
-5.511129806235496e-05   0.0   -5.5935169433819126e-05
-5.511129806235496e-05   0.0   -5.5935169433819126e-05
-5.511129806235496e-05   0.0   -5.5935169433819126e-05
-5.511129806235496e-05   0.0   -5.5935169433819126e-05
-9.509391057787935e-05   1.2548479668886929e-05   3.1734302907229523e-06
-9.509391057787935e-05   1.2548479668886929e-05   3.1734302907229523e-06
-9.509391057787935e-05   1.2548479668886929e-05   3.1734302907229523e-06
-9.509391057787935e-05   1.2548479668886929e-05   3.1734302907229523e-06
-7.366310197102268e-05   4.742842405807359e-06   -2.7861201696190392e-05
-7.366310197102268e-05   4.742842405807359e-06   -2.7861201696190392e-05
-7.366310197102268e-05   4.742842405807359e-06   -2.7861201696190392e-05
-7.366310197102268e-05   4.742842405807359e-06   -2.7861201696190392e-05
-9.509391057787952e-05   0.0   -6.34642572351513e-05
-9.509391057787952e-05   0.0   -6.34642572351513e-05
-9.509391057787952e-05   0.0   -6.34642572351513e-05
-9.509391057787952e-05   0.0   -6.34642572351513e-05
-5.511129806235496e-05   1.2548479668886942e-05   1.0702518092055131e-05
-5.511129806235496e-05   1.2548479668886942e-05   1.0702518092055131e-05
-5.511129806235496e-05   1.2548479668886942e-05   1.0702518092055131e-05
-5.511129806235496e-05   1.2548479668886942e-05   1.0702518092055131e-05
-5.5081043023663255e-05   0.0   -5.627867041288872e-05
-5.5081043023663255e-05   0.0   -5.627867041288872e-05
-5.5081043023663255e-05   0.0   -5.627867041288872e-05
-5.5081043023663255e-05   0.0   -5.627867041288872e-05
-0.00010129721312654502   1.4296246229896119e-05   1.2170532020643456e-05
-0.00010129721312654502   1.4296246229896119e-05   1.2170532020643456e-05
-0.00010129721312654502   1.4296246229896119e-05   1.2170532020643456e-05
-0.00010129721312654502   1.4296246229896119e-05   1.2170532020643456e-05
-7.508747680077125e-05   5.98798901855213e-06   -2.652740752883972e-05
-7.508747680077125e-05   5.98798901855213e-06   -2.652740752883972e-05
-7.508747680077125e-05   5.98798901855213e-06   -2.652740752883972e-05
-7.508747680077125e-05   5.98798901855213e-06   -2.652740752883972e-05
-5.6067336866098246e-05   0.0   -5.199218381665455e-05
-5.6067336866098246e-05   0.0   -5.199218381665455e-05
-5.6067336866098246e-05   0.0   -5.199218381665455e-05
-5.6067336866098246e-05   0.0   -5.199218381665455e-05
-2.5534689006915927e-05   3.578784418787519e-06   1.0428332665884615e-06
-2.5534689006915927e-05   3.578784418787519e-06   1.0428332665884615e-06
-2.5534689006915927e-05   3.578784418787519e-06   1.0428332665884615e-06
-2.5534689006915927e-05   3.578784418787519e-06   1.0428332665884615e-06
-2.4557789629964824e-05   0.0   -5.1541568491511935e-05
-2.4557789629964824e-05   0.0   -5.1541568491511935e-05
-2.4557789629964824e-05   0.0   -5.1541568491511935e-05
-2.4557789629964824e-05   0.0   -5.1541568491511935e-05
-5.495745030111011e-05   5.095857676049137e-06   -3.932981978565955e-06
-5.495745030111011e-05   5.095857676049137e-06   -3.932981978565955e-06
-5.495745030111011e-05   5.095857676049137e-06   -3.932981978565955e-06
-5.495745030111011e-05   5.095857676049137e-06   -3.932981978565955e-06
-4.031256324803147e-05   3.755127709521798e-07   -2.550892012397199e-05
-4.031256324803147e-05   3.755127709521798e-07   -2.550892012397199e-05
-4.031256324803147e-05   3.755127709521798e-07   -2.550892012397199e-05
-4.031256324803147e-05   3.755127709521798e-07   -2.550892012397199e-05
-5.495745030111006e-05   0.0   -5.459908309714137e-05
-5.495745030111006e-05   0.0   -5.459908309714137e-05
-5.495745030111006e-05   0.0   -5.459908309714137e-05
-5.495745030111006e-05   0.0   -5.459908309714137e-05
-2.4557789629964824e-05   5.095857676049137e-06   -8.754673729364688e-07
-2.4557789629964824e-05   5.095857676049137e-06   -8.754673729364688e-07
-2.4557789629964824e-05   5.095857676049137e-06   -8.754673729364688e-07
-2.4557789629964824e-05   5.095857676049137e-06   -8.754673729364688e-07
-2.40086660513943e-05   0.0   -5.218831806579165e-05
-2.40086660513943e-05   0.0   -5.218831806579165e-05
-2.40086660513943e-05   0.0   -5.218831806579165e-05
-2.40086660513943e-05   0.0   -5.218831806579165e-05
-5.511129806235496e-05   6.244752280045796e-06   -4.097449415551362e-06
-5.511129806235496e-05   6.244752280045796e-06   -4.097449415551362e-06
-5.511129806235496e-05   6.244752280045796e-06   -4.097449415551362e-06
-5.511129806235496e-05   6.244752280045796e-06   -4.097449415551362e-06
-3.948305817625212e-05   2.008970859458133e-06   -2.7603047040036606e-05
-3.948305817625212e-05   2.008970859458133e-06   -2.7603047040036606e-05
-3.948305817625212e-05   2.008970859458133e-06   -2.7603047040036606e-05
-3.948305817625212e-05   2.008970859458133e-06   -2.7603047040036606e-05
-5.511129806235496e-05   0.0   -5.5935169433819126e-05
-5.511129806235496e-05   0.0   -5.5935169433819126e-05
-5.511129806235496e-05   0.0   -5.5935169433819126e-05
-5.511129806235496e-05   0.0   -5.5935169433819126e-05
-2.40086660513943e-05   6.244752280045796e-06   -3.505980475238923e-07
-2.40086660513943e-05   6.244752280045796e-06   -3.505980475238923e-07
-2.40086660513943e-05   6.244752280045796e-06   -3.505980475238923e-07
-2.40086660513943e-05   6.244752280045796e-06   -3.505980475238923e-07
-2.3508457373626243e-05   0.0   -5.1918609024735055e-05
-2.3508457373626243e-05   0.0   -5.1918609024735055e-05
-2.3508457373626243e-05   0.0   -5.1918609024735055e-05
-2.3508457373626243e-05   0.0   -5.1918609024735055e-05
-5.5081043023663106e-05   7.266768980256026e-06   -3.6576943294936896e-06
-5.5081043023663106e-05   7.266768980256026e-06   -3.6576943294936896e-06
-5.5081043023663106e-05   7.266768980256026e-06   -3.6576943294936896e-06
-5.5081043023663106e-05   7.266768980256026e-06   -3.6576943294936896e-06
-3.9309877717990586e-05   3.3471336742366852e-06   -2.7591188655336487e-05
-3.9309877717990586e-05   3.3471336742366852e-06   -2.7591188655336487e-05
-3.9309877717990586e-05   3.3471336742366852e-06   -2.7591188655336487e-05
-3.9309877717990586e-05   3.3471336742366852e-06   -2.7591188655336487e-05
-2.553468900691597e-05   0.0   -4.9844913165382034e-05
-2.553468900691597e-05   0.0   -4.9844913165382034e-05
-2.553468900691597e-05   0.0   -4.9844913165382034e-05
-2.553468900691597e-05   0.0   -4.9844913165382034e-05
3.311951520449832e-06   -4.5883749773861413e-07   -2.0424814517488204e-06
3.311951520449832e-06   -4.5883749773861413e-07   -2.0424814517488204e-06
3.311951520449832e-06   -4.5883749773861413e-07   -2.0424814517488204e-06
3.311951520449832e-06   -4.5883749773861413e-07   -2.0424814517488204e-06
3.936034150392571e-06   0.0   -5.099942451445691e-05
3.936034150392571e-06   0.0   -5.099942451445691e-05
3.936034150392571e-06   0.0   -5.099942451445691e-05
3.936034150392571e-06   0.0   -5.099942451445691e-05
-2.4557789629964783e-05   9.035732950914003e-07   -4.0518621909162495e-06
-2.4557789629964783e-05   9.035732950914003e-07   -4.0518621909162495e-06
-2.4557789629964783e-05   9.035732950914003e-07   -4.0518621909162495e-06
-2.4557789629964783e-05   9.035732950914003e-07   -4.0518621909162495e-06
-1.0799327428261656e-05   -9.620927908958728e-07   -2.586323287549566e-05
-1.0799327428261656e-05   -9.620927908958728e-07   -2.586323287549566e-05
-1.0799327428261656e-05   -9.620927908958728e-07   -2.586323287549566e-05
-1.0799327428261656e-05   -9.620927908958728e-07   -2.586323287549566e-05
-2.4557789629964824e-05   0.0   -5.1541568491511935e-05
-2.4557789629964824e-05   0.0   -5.1541568491511935e-05
-2.4557789629964824e-05   0.0   -5.1541568491511935e-05
-2.4557789629964824e-05   0.0   -5.1541568491511935e-05
3.936034150392577e-06   9.035732950914003e-07   -3.5097182138614058e-06
3.936034150392577e-06   9.035732950914003e-07   -3.5097182138614058e-06
3.936034150392577e-06   9.035732950914003e-07   -3.5097182138614058e-06
3.936034150392577e-06   9.035732950914003e-07   -3.5097182138614058e-06
4.4287506609082955e-06   0.0   -5.0926374449465534e-05
4.4287506609082955e-06   0.0   -5.0926374449465534e-05
4.4287506609082955e-06   0.0   -5.0926374449465534e-05
4.4287506609082955e-06   0.0   -5.0926374449465534e-05
-2.4008666051394215e-05   2.1032393605433794e-06   -4.7926235452873075e-06
-2.4008666051394215e-05   2.1032393605433794e-06   -4.7926235452873075e-06
-2.4008666051394215e-05   2.1032393605433794e-06   -4.7926235452873075e-06
-2.4008666051394215e-05   2.1032393605433794e-06   -4.7926235452873075e-06
-1.0064519484528244e-05   5.126617017052609e-07   -2.707852122809444e-05
-1.0064519484528244e-05   5.126617017052609e-07   -2.707852122809444e-05
-1.0064519484528244e-05   5.126617017052609e-07   -2.707852122809444e-05
-1.0064519484528244e-05   5.126617017052609e-07   -2.707852122809444e-05
-2.40086660513943e-05   0.0   -5.218831806579165e-05
-2.40086660513943e-05   0.0   -5.218831806579165e-05
-2.40086660513943e-05   0.0   -5.218831806579165e-05
-2.40086660513943e-05   0.0   -5.218831806579165e-05
4.428750660908303e-06   2.1032393605433794e-06   -3.5306799289612926e-06
4.428750660908303e-06   2.1032393605433794e-06   -3.5306799289612926e-06
4.428750660908303e-06   2.1032393605433794e-06   -3.5306799289612926e-06
4.428750660908303e-06   2.1032393605433794e-06   -3.5306799289612926e-06
5.091323994772014e-06   0.0   -4.982299471603048e-05
5.091323994772014e-06   0.0   -4.982299471603048e-05
5.091323994772014e-06   0.0   -4.982299471603048e-05
5.091323994772014e-06   0.0   -4.982299471603048e-05
-2.350845737362618e-05   3.492690514507552e-06   -4.2523067440712844e-06
-2.350845737362618e-05   3.492690514507552e-06   -4.2523067440712844e-06
-2.350845737362618e-05   3.492690514507552e-06   -4.2523067440712844e-06
-2.350845737362618e-05   3.492690514507552e-06   -4.2523067440712844e-06
-9.458671028311123e-06   1.97110279146757e-06   -2.6755664685772443e-05
-9.458671028311123e-06   1.97110279146757e-06   -2.6755664685772443e-05
-9.458671028311123e-06   1.97110279146757e-06   -2.6755664685772443e-05
-9.458671028311123e-06   1.97110279146757e-06   -2.6755664685772443e-05
3.3119515204498373e-06   0.0   -5.012021566402521e-05
3.3119515204498373e-06   0.0   -5.012021566402521e-05
3.3119515204498373e-06   0.0   -5.012021566402521e-05
3.3119515204498373e-06   0.0   -5.012021566402521e-05
3.462551490354716e-05   -4.061225247405675e-06   -3.676785073063616e-07
3.462551490354716e-05   -4.061225247405675e-06   -3.676785073063616e-07
3.462551490354716e-05   -4.061225247405675e-06   -3.676785073063616e-07
3.462551490354716e-05   -4.061225247405675e-06   -3.676785073063616e-07
3.4687990267985134e-05   0.0   -5.283620722423964e-05
3.4687990267985134e-05   0.0   -5.283620722423964e-05
3.4687990267985134e-05   0.0   -5.283620722423964e-05
3.4687990267985134e-05   0.0   -5.283620722423964e-05
3.936034150392584e-06   -3.0613045163042658e-06   2.538356815304893e-07
3.936034150392584e-06   -3.0613045163042658e-06   2.538356815304893e-07
3.936034150392584e-06   -3.0613045163042658e-06   2.538356815304893e-07
3.936034150392584e-06   -3.0613045163042658e-06   2.538356815304893e-07
1.8999970894217486e-05   -2.2633263001786987e-06   -2.533151248785299e-05
1.8999970894217486e-05   -2.2633263001786987e-06   -2.533151248785299e-05
1.8999970894217486e-05   -2.2633263001786987e-06   -2.533151248785299e-05
1.8999970894217486e-05   -2.2633263001786987e-06   -2.533151248785299e-05
3.936034150392584e-06   0.0   -5.0999424514457086e-05
3.936034150392584e-06   0.0   -5.0999424514457086e-05
3.936034150392584e-06   0.0   -5.0999424514457086e-05
3.936034150392584e-06   0.0   -5.0999424514457086e-05
3.4687990267985134e-05   -3.0613045163042658e-06   -1.5829470282520622e-06
3.4687990267985134e-05   -3.0613045163042658e-06   -1.5829470282520622e-06
3.4687990267985134e-05   -3.0613045163042658e-06   -1.5829470282520622e-06
3.4687990267985134e-05   -3.0613045163042658e-06   -1.5829470282520622e-06
3.4540206869976876e-05   0.0   -5.2081732620487684e-05
3.4540206869976876e-05   0.0   -5.2081732620487684e-05
3.4540206869976876e-05   0.0   -5.2081732620487684e-05
3.4540206869976876e-05   0.0   -5.2081732620487684e-05
4.428750660908303e-06   -1.925596951703434e-06   -7.406141010180041e-07
4.428750660908303e-06   -1.925596951703434e-06   -7.406141010180041e-07
4.428750660908303e-06   -1.925596951703434e-06   -7.406141010180041e-07
4.428750660908303e-06   -1.925596951703434e-06   -7.406141010180041e-07
1.923812051018473e-05   -9.019234216921631e-07   -2.6037101301152123e-05
1.923812051018473e-05   -9.019234216921631e-07   -2.6037101301152123e-05
1.923812051018473e-05   -9.019234216921631e-07   -2.6037101301152123e-05
1.923812051018473e-05   -9.019234216921631e-07   -2.6037101301152123e-05
4.4287506609083e-06   0.0   -5.0926374449465575e-05
4.4287506609083e-06   0.0   -5.0926374449465575e-05
4.4287506609083e-06   0.0   -5.0926374449465575e-05
4.4287506609083e-06   0.0   -5.0926374449465575e-05
3.4540206869976876e-05   -1.925596951703434e-06   -1.8959722720400676e-06
3.4540206869976876e-05   -1.925596951703434e-06   -1.8959722720400676e-06
3.4540206869976876e-05   -1.925596951703434e-06   -1.8959722720400676e-06
3.4540206869976876e-05   -1.925596951703434e-06   -1.8959722720400676e-06
3.520989644507275e-05   0.0   -5.006269898399655e-05
3.520989644507275e-05   0.0   -5.006269898399655e-05
3.520989644507275e-05   0.0   -5.006269898399655e-05
3.520989644507275e-05   0.0   -5.006269898399655e-05
5.0913239947720225e-06   -3.9950711327664437e-07   3.7462603447064367e-07
5.0913239947720225e-06   -3.9950711327664437e-07   3.7462603447064367e-07
5.0913239947720225e-06   -3.9950711327664437e-07   3.7462603447064367e-07
5.0913239947720225e-06   -3.9950711327664437e-07   3.7462603447064367e-07
1.9819323552990513e-05   7.197295545575581e-07   -2.484358189659401e-05
1.9819323552990513e-05   7.197295545575581e-07   -2.484358189659401e-05
1.9819323552990513e-05   7.197295545575581e-07   -2.484358189659401e-05
1.9819323552990513e-05   7.197295545575581e-07   -2.484358189659401e-05
3.462551490354716e-05   0.0   -5.2556950812468604e-05
3.462551490354716e-05   0.0   -5.2556950812468604e-05
3.462551490354716e-05   0.0   -5.2556950812468604e-05
3.462551490354716e-05   0.0   -5.2556950812468604e-05
7.817683139686392e-05   -1.0295796335177605e-05   1.3851098875286498e-05
7.817683139686392e-05   -1.0295796335177605e-05   1.3851098875286498e-05
7.817683139686392e-05   -1.0295796335177605e-05   1.3851098875286498e-05
7.817683139686392e-05   -1.0295796335177605e-05   1.3851098875286498e-05
7.342183676005355e-05   0.0   -5.809197091334327e-05
7.342183676005355e-05   0.0   -5.809197091334327e-05
7.342183676005355e-05   0.0   -5.809197091334327e-05
7.342183676005355e-05   0.0   -5.809197091334327e-05
3.4687990267985134e-05   -8.759606148506038e-06   1.1720203595874375e-05
3.4687990267985134e-05   -8.759606148506038e-06   1.1720203595874375e-05
3.4687990267985134e-05   -8.759606148506038e-06   1.1720203595874375e-05
3.4687990267985134e-05   -8.759606148506038e-06   1.1720203595874375e-05
5.402367583180036e-05   -4.6125167507288865e-06   -2.299419264915059e-05
5.402367583180036e-05   -4.6125167507288865e-06   -2.299419264915059e-05
5.402367583180036e-05   -4.6125167507288865e-06   -2.299419264915059e-05
5.402367583180036e-05   -4.6125167507288865e-06   -2.299419264915059e-05
3.468799026798511e-05   0.0   -5.28362072242396e-05
3.468799026798511e-05   0.0   -5.28362072242396e-05
3.468799026798511e-05   0.0   -5.28362072242396e-05
3.468799026798511e-05   0.0   -5.28362072242396e-05
7.34218367600533e-05   -8.75960614850601e-06   6.4644399067707305e-06
7.34218367600533e-05   -8.75960614850601e-06   6.4644399067707305e-06
7.34218367600533e-05   -8.75960614850601e-06   6.4644399067707305e-06
7.34218367600533e-05   -8.75960614850601e-06   6.4644399067707305e-06
7.122947103040596e-05   0.0   -5.688421559955485e-05
7.122947103040596e-05   0.0   -5.688421559955485e-05
7.122947103040596e-05   0.0   -5.688421559955485e-05
7.122947103040596e-05   0.0   -5.688421559955485e-05
3.4540206869976876e-05   -8.004138298445273e-06   9.06704098022741e-06
3.4540206869976876e-05   -8.004138298445273e-06   9.06704098022741e-06
3.4540206869976876e-05   -8.004138298445273e-06   9.06704098022741e-06
3.4540206869976876e-05   -8.004138298445273e-06   9.06704098022741e-06
5.2958730649195514e-05   -3.3733403127626736e-06   -2.4408977443213188e-05
5.2958730649195514e-05   -3.3733403127626736e-06   -2.4408977443213188e-05
5.2958730649195514e-05   -3.3733403127626736e-06   -2.4408977443213188e-05
5.2958730649195514e-05   -3.3733403127626736e-06   -2.4408977443213188e-05
3.4540206869976876e-05   0.0   -5.2081732620487684e-05
3.4540206869976876e-05   0.0   -5.2081732620487684e-05
3.4540206869976876e-05   0.0   -5.2081732620487684e-05
3.4540206869976876e-05   0.0   -5.2081732620487684e-05
7.12294710304057e-05   -8.004138298445246e-06   4.264558001160237e-06
7.12294710304057e-05   -8.004138298445246e-06   4.264558001160237e-06
7.12294710304057e-05   -8.004138298445246e-06   4.264558001160237e-06
7.12294710304057e-05   -8.004138298445246e-06   4.264558001160237e-06
6.796510978900927e-05   0.0   -5.3794967249556424e-05
6.796510978900927e-05   0.0   -5.3794967249556424e-05
6.796510978900927e-05   0.0   -5.3794967249556424e-05
6.796510978900927e-05   0.0   -5.3794967249556424e-05
3.520989644507275e-05   -6.220447109266607e-06   4.529323255897842e-06
3.520989644507275e-05   -6.220447109266607e-06   4.529323255897842e-06
3.520989644507275e-05   -6.220447109266607e-06   4.529323255897842e-06
3.520989644507275e-05   -6.220447109266607e-06   4.529323255897842e-06
5.1252658329493136e-05   -1.4276955242240285e-06   -2.5084264169161663e-05
5.1252658329493136e-05   -1.4276955242240285e-06   -2.5084264169161663e-05
5.1252658329493136e-05   -1.4276955242240285e-06   -2.5084264169161663e-05
5.1252658329493136e-05   -1.4276955242240285e-06   -2.5084264169161663e-05
-7.643886827158099e-05   9.759060494663518e-06   -5.016559748321717e-05
-7.643886827158099e-05   9.759060494663518e-06   -5.016559748321717e-05
-7.643886827158099e-05   9.759060494663518e-06   -5.016559748321717e-05
-7.643886827158099e-05   9.759060494663518e-06   -5.016559748321717e-05