<?xml version="1.0"?> 
<VTKFile type="UnstructuredGrid"> 
   <UnstructuredGrid> 
      <Piece NumberOfPoints="6000"  NumberOfCells="1500">  
          <Points>  
             <DataArray type="Float64" NumberOfComponents="3" format="ascii">   
-500.0   0.0   0.0
-450.0   0.0   0.0
-500.0   30.0   0.0
-500.0   0.0   16.666666666666668
-450.0   0.0   0.0
-450.0   30.0   0.0
-500.0   30.0   0.0
-450.0   30.0   16.666666666666668
-500.0   0.0   16.666666666666668
-500.0   30.0   16.666666666666668
-450.0   30.0   16.666666666666668
-500.0   30.0   0.0
-500.0   0.0   16.666666666666668
-450.0   30.0   16.666666666666668
-450.0   0.0   16.666666666666668
-450.0   0.0   0.0
-500.0   0.0   16.666666666666668
-450.0   30.0   16.666666666666668
-450.0   0.0   0.0
-500.0   30.0   0.0
-500.0   0.0   16.666666666666668
-450.0   0.0   16.666666666666668
-500.0   30.0   16.666666666666668
-500.0   0.0   33.333333333333336
-450.0   0.0   16.666666666666668
-450.0   30.0   16.666666666666668
-500.0   30.0   16.666666666666668
-450.0   30.0   33.333333333333336
-500.0   0.0   33.333333333333336
-500.0   30.0   33.333333333333336
-450.0   30.0   33.333333333333336
-500.0   30.0   16.666666666666668
-500.0   0.0   33.333333333333336
-450.0   30.0   33.333333333333336
-450.0   0.0   33.333333333333336
-450.0   0.0   16.666666666666668
-500.0   0.0   33.333333333333336
-450.0   30.0   33.333333333333336
-450.0   0.0   16.666666666666668
-500.0   30.0   16.666666666666668
-500.0   0.0   33.333333333333336
-450.0   0.0   33.333333333333336
-500.0   30.0   33.333333333333336
-500.0   0.0   50.0
-450.0   0.0   33.333333333333336
-450.0   30.0   33.333333333333336
-500.0   30.0   33.333333333333336
-450.0   30.0   50.0
-500.0   0.0   50.0
-500.0   30.0   50.0
-450.0   30.0   50.0
-500.0   30.0   33.333333333333336
-500.0   0.0   50.0
-450.0   30.0   50.0
-450.0   0.0   50.0
-450.0   0.0   33.333333333333336
-500.0   0.0   50.0
-450.0   30.0   50.0
-450.0   0.0   33.333333333333336
-500.0   30.0   33.333333333333336
-500.0   30.0   0.0
-450.0   30.0   0.0
-500.0   60.0   0.0
-500.0   30.0   16.666666666666668
-450.0   30.0   0.0
-450.0   60.0   0.0
-500.0   60.0   0.0
-450.0   60.0   16.666666666666668
-500.0   30.0   16.666666666666668
-500.0   60.0   16.666666666666668
-450.0   60.0   16.666666666666668
-500.0   60.0   0.0
-500.0   30.0   16.666666666666668
-450.0   60.0   16.666666666666668
-450.0   30.0   16.666666666666668
-450.0   30.0   0.0
-500.0   30.0   16.666666666666668
-450.0   60.0   16.666666666666668
-450.0   30.0   0.0
-500.0   60.0   0.0
-500.0   30.0   16.666666666666668
-450.0   30.0   16.666666666666668
-500.0   60.0   16.666666666666668
-500.0   30.0   33.333333333333336
-450.0   30.0   16.666666666666668
-450.0   60.0   16.666666666666668
-500.0   60.0   16.666666666666668
-450.0   60.0   33.333333333333336
-500.0   30.0   33.333333333333336
-500.0   60.0   33.333333333333336
-450.0   60.0   33.333333333333336
-500.0   60.0   16.666666666666668
-500.0   30.0   33.333333333333336
-450.0   60.0   33.333333333333336
-450.0   30.0   33.333333333333336
-450.0   30.0   16.666666666666668
-500.0   30.0   33.333333333333336
-450.0   60.0   33.333333333333336
-450.0   30.0   16.666666666666668
-500.0   60.0   16.666666666666668
-500.0   30.0   33.333333333333336
-450.0   30.0   33.333333333333336
-500.0   60.0   33.333333333333336
-500.0   30.0   50.0
-450.0   30.0   33.333333333333336
-450.0   60.0   33.333333333333336
-500.0   60.0   33.333333333333336
-450.0   60.0   50.0
-500.0   30.0   50.0
-500.0   60.0   50.0
-450.0   60.0   50.0
-500.0   60.0   33.333333333333336
-500.0   30.0   50.0
-450.0   60.0   50.0
-450.0   30.0   50.0
-450.0   30.0   33.333333333333336
-500.0   30.0   50.0
-450.0   60.0   50.0
-450.0   30.0   33.333333333333336
-500.0   60.0   33.333333333333336
-500.0   60.0   0.0
-450.0   60.0   0.0
-500.0   90.0   0.0
-500.0   60.0   16.666666666666668
-450.0   60.0   0.0
-450.0   90.0   0.0
-500.0   90.0   0.0
-450.0   90.0   16.666666666666668
-500.0   60.0   16.666666666666668
-500.0   90.0   16.666666666666668
-450.0   90.0   16.666666666666668
-500.0   90.0   0.0
-500.0   60.0   16.666666666666668
-450.0   90.0   16.666666666666668
-450.0   60.0   16.666666666666668
-450.0   60.0   0.0
-500.0   60.0   16.666666666666668
-450.0   90.0   16.666666666666668
-450.0   60.0   0.0
-500.0   90.0   0.0
-500.0   60.0   16.666666666666668
-450.0   60.0   16.666666666666668
-500.0   90.0   16.666666666666668
-500.0   60.0   33.333333333333336
-450.0   60.0   16.666666666666668
-450.0   90.0   16.666666666666668
-500.0   90.0   16.666666666666668
-450.0   90.0   33.333333333333336
-500.0   60.0   33.333333333333336
-500.0   90.0   33.333333333333336
-450.0   90.0   33.333333333333336
-500.0   90.0   16.666666666666668
-500.0   60.0   33.333333333333336
-450.0   90.0   33.333333333333336
-450.0   60.0   33.333333333333336
-450.0   60.0   16.666666666666668
-500.0   60.0   33.333333333333336
-450.0   90.0   33.333333333333336
-450.0   60.0   16.666666666666668
-500.0   90.0   16.666666666666668
-500.0   60.0   33.333333333333336
-450.0   60.0   33.333333333333336
-500.0   90.0   33.333333333333336
-500.0   60.0   50.0
-450.0   60.0   33.333333333333336
-450.0   90.0   33.333333333333336
-500.0   90.0   33.333333333333336
-450.0   90.0   50.0
-500.0   60.0   50.0
-500.0   90.0   50.0
-450.0   90.0   50.0
-500.0   90.0   33.333333333333336
-500.0   60.0   50.0
-450.0   90.0   50.0
-450.0   60.0   50.0
-450.0   60.0   33.333333333333336
-500.0   60.0   50.0
-450.0   90.0   50.0
-450.0   60.0   33.333333333333336
-500.0   90.0   33.333333333333336
-500.0   90.0   0.0
-450.0   90.0   0.0
-500.0   120.0   0.0
-500.0   90.0   16.666666666666668
-450.0   90.0   0.0
-450.0   120.0   0.0
-500.0   120.0   0.0
-450.0   120.0   16.666666666666668
-500.0   90.0   16.666666666666668
-500.0   120.0   16.666666666666668
-450.0   120.0   16.666666666666668
-500.0   120.0   0.0
-500.0   90.0   16.666666666666668
-450.0   120.0   16.666666666666668
-450.0   90.0   16.666666666666668
-450.0   90.0   0.0
-500.0   90.0   16.666666666666668
-450.0   120.0   16.666666666666668
-450.0   90.0   0.0
-500.0   120.0   0.0
-500.0   90.0   16.666666666666668
-450.0   90.0   16.666666666666668
-500.0   120.0   16.666666666666668
-500.0   90.0   33.333333333333336
-450.0   90.0   16.666666666666668
-450.0   120.0   16.666666666666668
-500.0   120.0   16.666666666666668
-450.0   120.0   33.333333333333336
-500.0   90.0   33.333333333333336
-500.0   120.0   33.333333333333336
-450.0   120.0   33.333333333333336
-500.0   120.0   16.666666666666668
-500.0   90.0   33.333333333333336
-450.0   120.0   33.333333333333336
-450.0   90.0   33.333333333333336
-450.0   90.0   16.666666666666668
-500.0   90.0   33.333333333333336
-450.0   120.0   33.333333333333336
-450.0   90.0   16.666666666666668
-500.0   120.0   16.666666666666668
-500.0   90.0   33.333333333333336
-450.0   90.0   33.333333333333336
-500.0   120.0   33.333333333333336
-500.0   90.0   50.0
-450.0   90.0   33.333333333333336
-450.0   120.0   33.333333333333336
-500.0   120.0   33.333333333333336
-450.0   120.0   50.0
-500.0   90.0   50.0
-500.0   120.0   50.0
-450.0   120.0   50.0
-500.0   120.0   33.333333333333336
-500.0   90.0   50.0
-450.0   120.0   50.0
-450.0   90.0   50.0
-450.0   90.0   33.333333333333336
-500.0   90.0   50.0
-450.0   120.0   50.0
-450.0   90.0   33.333333333333336
-500.0   120.0   33.333333333333336
-500.0   120.0   0.0
-450.0   120.0   0.0
-500.0   150.0   0.0
-500.0   120.0   16.666666666666668
-450.0   120.0   0.0
-450.0   150.0   0.0
-500.0   150.0   0.0
-450.0   150.0   16.666666666666668
-500.0   120.0   16.666666666666668
-500.0   150.0   16.666666666666668
-450.0   150.0   16.666666666666668
-500.0   150.0   0.0
-500.0   120.0   16.666666666666668
-450.0   150.0   16.666666666666668
-450.0   120.0   16.666666666666668
-450.0   120.0   0.0
-500.0   120.0   16.666666666666668
-450.0   150.0   16.666666666666668
-450.0   120.0   0.0
-500.0   150.0   0.0
-500.0   120.0   16.666666666666668
-450.0   120.0   16.666666666666668
-500.0   150.0   16.666666666666668
-500.0   120.0   33.333333333333336
-450.0   120.0   16.666666666666668
-450.0   150.0   16.666666666666668
-500.0   150.0   16.666666666666668
-450.0   150.0   33.333333333333336
-500.0   120.0   33.333333333333336
-500.0   150.0   33.333333333333336
-450.0   150.0   33.333333333333336
-500.0   150.0   16.666666666666668
-500.0   120.0   33.333333333333336
-450.0   150.0   33.333333333333336
-450.0   120.0   33.333333333333336
-450.0   120.0   16.666666666666668
-500.0   120.0   33.333333333333336
-450.0   150.0   33.333333333333336
-450.0   120.0   16.666666666666668
-500.0   150.0   16.666666666666668
-500.0   120.0   33.333333333333336
-450.0   120.0   33.333333333333336
-500.0   150.0   33.333333333333336
-500.0   120.0   50.0
-450.0   120.0   33.333333333333336
-450.0   150.0   33.333333333333336
-500.0   150.0   33.333333333333336
-450.0   150.0   50.0
-500.0   120.0   50.0
-500.0   150.0   50.0
-450.0   150.0   50.0
-500.0   150.0   33.333333333333336
-500.0   120.0   50.0
-450.0   150.0   50.0
-450.0   120.0   50.0
-450.0   120.0   33.333333333333336
-500.0   120.0   50.0
-450.0   150.0   50.0
-450.0   120.0   33.333333333333336
-500.0   150.0   33.333333333333336
-450.0   0.0   0.0
-400.0   0.0   0.0
-450.0   30.0   0.0
-450.0   0.0   16.666666666666668
-400.0   0.0   0.0
-400.0   30.0   0.0
-450.0   30.0   0.0
-400.0   30.0   16.666666666666668
-450.0   0.0   16.666666666666668
-450.0   30.0   16.666666666666668
-400.0   30.0   16.666666666666668
-450.0   30.0   0.0
-450.0   0.0   16.666666666666668
-400.0   30.0   16.666666666666668
-400.0   0.0   16.666666666666668
-400.0   0.0   0.0
-450.0   0.0   16.666666666666668
-400.0   30.0   16.666666666666668
-400.0   0.0   0.0
-450.0   30.0   0.0
-450.0   0.0   16.666666666666668
-400.0   0.0   16.666666666666668
-450.0   30.0   16.666666666666668
[...]
          <PointData>  
             <DataArray type="Float64" NumberOfComponents="3" Name="Strains" format="ascii">   
-0.00011314908742652553   0.0   -7.42083599402559e-05
-0.00011314908742652553   0.0   -7.42083599402559e-05
-0.00011314908742652553   0.0   -7.42083599402559e-05
-0.00011314908742652553   0.0   -7.42083599402559e-05
-7.20040595025514e-05   1.254159409352092e-05   1.8916430558133776e-06
-7.20040595025514e-05   1.254159409352092e-05   1.8916430558133776e-06
-7.20040595025514e-05   1.254159409352092e-05   1.8916430558133776e-06
-7.20040595025514e-05   1.254159409352092e-05   1.8916430558133776e-06
-7.058378904986567e-05   0.0   -7.003125786780469e-05
-7.058378904986567e-05   0.0   -7.003125786780469e-05
-7.058378904986567e-05   0.0   -7.003125786780469e-05
-7.058378904986567e-05   0.0   -7.003125786780469e-05
-0.00011842049591123456   1.5047285845796936e-05   6.682153936656324e-07
-0.00011842049591123456   1.5047285845796936e-05   6.682153936656324e-07
-0.00011842049591123456   1.5047285845796936e-05   6.682153936656324e-07
-0.00011842049591123456   1.5047285845796936e-05   6.682153936656324e-07
-9.186643823819544e-05   3.480918393709335e-06   -3.664872692348031e-05
-9.186643823819544e-05   3.480918393709335e-06   -3.664872692348031e-05
-9.186643823819544e-05   3.480918393709335e-06   -3.664872692348031e-05
-9.186643823819544e-05   3.480918393709335e-06   -3.664872692348031e-05
-0.00011842049591123476   0.0   -7.905962937528285e-05
-0.00011842049591123476   0.0   -7.905962937528285e-05
-0.00011842049591123476   0.0   -7.905962937528285e-05
-0.00011842049591123476   0.0   -7.905962937528285e-05
-7.058378904986567e-05   1.5047285845796963e-05   9.696586901143783e-06
-7.058378904986567e-05   1.5047285845796963e-05   9.696586901143783e-06
-7.058378904986567e-05   1.5047285845796963e-05   9.696586901143783e-06
-7.058378904986567e-05   1.5047285845796963e-05   9.696586901143783e-06
-7.078688856273825e-05   0.0   -7.174646460613963e-05
-7.078688856273825e-05   0.0   -7.174646460613963e-05
-7.078688856273825e-05   0.0   -7.174646460613963e-05
-7.078688856273825e-05   0.0   -7.174646460613963e-05
-0.00012212440946167188   1.612000872944104e-05   4.144064987752111e-06
-0.00012212440946167188   1.612000872944104e-05   4.144064987752111e-06
-0.00012212440946167188   1.612000872944104e-05   4.144064987752111e-06
-0.00012212440946167188   1.612000872944104e-05   4.144064987752111e-06
-9.460369223698634e-05   6.0943039742860156e-06   -3.5708374200297394e-05
-9.460369223698634e-05   6.0943039742860156e-06   -3.5708374200297394e-05
-9.460369223698634e-05   6.0943039742860156e-06   -3.5708374200297394e-05
-9.460369223698634e-05   6.0943039742860156e-06   -3.5708374200297394e-05
-0.0001221244094616721   0.0   -8.141846984380427e-05
-0.0001221244094616721   0.0   -8.141846984380427e-05
-0.0001221244094616721   0.0   -8.141846984380427e-05
-0.0001221244094616721   0.0   -8.141846984380427e-05
-7.078688856273825e-05   1.6120008729441054e-05   1.3816070225416768e-05
-7.078688856273825e-05   1.6120008729441054e-05   1.3816070225416768e-05
-7.078688856273825e-05   1.6120008729441054e-05   1.3816070225416768e-05
-7.078688856273825e-05   1.6120008729441054e-05   1.3816070225416768e-05
-7.075423645049172e-05   0.0   -7.218656714888347e-05
-7.075423645049172e-05   0.0   -7.218656714888347e-05
-7.075423645049172e-05   0.0   -7.218656714888347e-05
-7.075423645049172e-05   0.0   -7.218656714888347e-05
-0.0001300996496597853   1.8361214076088558e-05   1.570572642095304e-05
-0.0001300996496597853   1.8361214076088558e-05   1.570572642095304e-05
-0.0001300996496597853   1.8361214076088558e-05   1.570572642095304e-05
-0.0001300996496597853   1.8361214076088558e-05   1.570572642095304e-05
-9.643932295608175e-05   7.693252245767326e-06   -3.3994040987026775e-05
-9.643932295608175e-05   7.693252245767326e-06   -3.3994040987026775e-05
-9.643932295608175e-05   7.693252245767326e-06   -3.3994040987026775e-05
-9.643932295608175e-05   7.693252245767326e-06   -3.3994040987026775e-05
-7.200405950255152e-05   0.0   -6.668340348414333e-05
-7.200405950255152e-05   0.0   -6.668340348414333e-05
-7.200405950255152e-05   0.0   -6.668340348414333e-05
-7.200405950255152e-05   0.0   -6.668340348414333e-05
-3.27863652470664e-05   4.601084256259175e-06   1.440070828754008e-06
-3.27863652470664e-05   4.601084256259175e-06   1.440070828754008e-06
-3.27863652470664e-05   4.601084256259175e-06   1.440070828754008e-06
-3.27863652470664e-05   4.601084256259175e-06   1.440070828754008e-06
-3.153740051551547e-05   0.0   -6.610229958983002e-05
-3.153740051551547e-05   0.0   -6.610229958983002e-05
-3.153740051551547e-05   0.0   -6.610229958983002e-05
-3.153740051551547e-05   0.0   -6.610229958983002e-05
-7.058378904986567e-05   6.548263796624429e-06   -4.953943643887685e-06
-7.058378904986567e-05   6.548263796624429e-06   -4.953943643887685e-06
-7.058378904986567e-05   6.548263796624429e-06   -4.953943643887685e-06
-7.058378904986567e-05   6.548263796624429e-06   -4.953943643887685e-06
-5.177073000903341e-05   4.842532452610897e-07   -3.267063571445654e-05
-5.177073000903341e-05   4.842532452610897e-07   -3.267063571445654e-05
-5.177073000903341e-05   4.842532452610897e-07   -3.267063571445654e-05
-5.177073000903341e-05   4.842532452610897e-07   -3.267063571445654e-05
-7.05837890498656e-05   0.0   -7.003125786780462e-05
-7.05837890498656e-05   0.0   -7.003125786780462e-05
-7.05837890498656e-05   0.0   -7.003125786780462e-05
-7.05837890498656e-05   0.0   -7.003125786780462e-05
-3.153740051551547e-05   6.548263796624429e-06   -1.0249853659130258e-06
-3.153740051551547e-05   6.548263796624429e-06   -1.0249853659130258e-06
-3.153740051551547e-05   6.548263796624429e-06   -1.0249853659130258e-06
-3.153740051551547e-05   6.548263796624429e-06   -1.0249853659130258e-06
-3.083759521899682e-05   0.0   -6.693289741484005e-05
-3.083759521899682e-05   0.0   -6.693289741484005e-05
-3.083759521899682e-05   0.0   -6.693289741484005e-05
-3.083759521899682e-05   0.0   -6.693289741484005e-05
-7.078688856273825e-05   8.022611985499304e-06   -5.1643090332372665e-06
-7.078688856273825e-05   8.022611985499304e-06   -5.1643090332372665e-06
-7.078688856273825e-05   8.022611985499304e-06   -5.1643090332372665e-06
-7.078688856273825e-05   8.022611985499304e-06   -5.1643090332372665e-06
-5.071069213443114e-05   2.5819670441371926e-06   -3.536024944893155e-05
-5.071069213443114e-05   2.5819670441371926e-06   -3.536024944893155e-05
-5.071069213443114e-05   2.5819670441371926e-06   -3.536024944893155e-05
-5.071069213443114e-05   2.5819670441371926e-06   -3.536024944893155e-05
-7.078688856273825e-05   0.0   -7.174646460613963e-05
-7.078688856273825e-05   0.0   -7.174646460613963e-05
-7.078688856273825e-05   0.0   -7.174646460613963e-05
-7.078688856273825e-05   0.0   -7.174646460613963e-05
-3.083759521899682e-05   8.022611985499304e-06   -3.5074184193767345e-07
-3.083759521899682e-05   8.022611985499304e-06   -3.5074184193767345e-07
-3.083759521899682e-05   8.022611985499304e-06   -3.5074184193767345e-07
-3.083759521899682e-05   8.022611985499304e-06   -3.5074184193767345e-07
-3.020103518915358e-05   0.0   -6.658599500318134e-05
-3.020103518915358e-05   0.0   -6.658599500318134e-05
-3.020103518915358e-05   0.0   -6.658599500318134e-05
-3.020103518915358e-05   0.0   -6.658599500318134e-05
-7.075423645049155e-05   9.334286909503441e-06   -4.597898379986529e-06
-7.075423645049155e-05   9.334286909503441e-06   -4.597898379986529e-06
-7.075423645049155e-05   9.334286909503441e-06   -4.597898379986529e-06
-7.075423645049155e-05   9.334286909503441e-06   -4.597898379986529e-06
-5.04939618759459e-05   4.3003913357985335e-06   -3.534468532667325e-05
-5.04939618759459e-05   4.3003913357985335e-06   -3.534468532667325e-05
-5.04939618759459e-05   4.3003913357985335e-06   -3.534468532667325e-05
-5.04939618759459e-05   4.3003913357985335e-06   -3.534468532667325e-05
-3.278636524706646e-05   0.0   -6.392275293038783e-05
-3.278636524706646e-05   0.0   -6.392275293038783e-05
-3.278636524706646e-05   0.0   -6.392275293038783e-05
-3.278636524706646e-05   0.0   -6.392275293038783e-05
4.270441906778239e-06   -5.884724769178348e-07   -2.514491160130628e-06
4.270441906778239e-06   -5.884724769178348e-07   -2.514491160130628e-06
4.270441906778239e-06   -5.884724769178348e-07   -2.514491160130628e-06
4.270441906778239e-06   -5.884724769178348e-07   -2.514491160130628e-06
5.065780927414504e-06   0.0   -6.540601310508905e-05
5.065780927414504e-06   0.0   -6.540601310508905e-05
5.065780927414504e-06   0.0   -6.540601310508905e-05
5.065780927414504e-06   0.0   -6.540601310508905e-05
-3.153740051551541e-05   1.1604774745679089e-06   -5.096997184946704e-06
-3.153740051551541e-05   1.1604774745679089e-06   -5.096997184946704e-06
-3.153740051551541e-05   1.1604774745679089e-06   -5.096997184946704e-06
-3.153740051551541e-05   1.1604774745679089e-06   -5.096997184946704e-06
-1.386029215982592e-05   -1.2360501455845364e-06   -3.31209278723376e-05
-1.386029215982592e-05   -1.2360501455845364e-06   -3.31209278723376e-05
-1.386029215982592e-05   -1.2360501455845364e-06   -3.31209278723376e-05
-1.386029215982592e-05   -1.2360501455845364e-06   -3.31209278723376e-05
-3.153740051551547e-05   0.0   -6.610229958983002e-05
-3.153740051551547e-05   0.0   -6.610229958983002e-05
-3.153740051551547e-05   0.0   -6.610229958983002e-05
-3.153740051551547e-05   0.0   -6.610229958983002e-05
5.065780927414512e-06   1.1604774745679089e-06   -4.4007107002059615e-06
5.065780927414512e-06   1.1604774745679089e-06   -4.4007107002059615e-06
5.065780927414512e-06   1.1604774745679089e-06   -4.4007107002059615e-06
5.065780927414512e-06   1.1604774745679089e-06   -4.4007107002059615e-06
5.692978815543765e-06   0.0   -6.531275023970805e-05
5.692978815543765e-06   0.0   -6.531275023970805e-05
5.692978815543765e-06   0.0   -6.531275023970805e-05
5.692978815543765e-06   0.0   -6.531275023970805e-05
-3.083759521899671e-05   2.7002452918864777e-06   -6.048607357272386e-06
-3.083759521899671e-05   2.7002452918864777e-06   -6.048607357272386e-06
-3.083759521899671e-05   2.7002452918864777e-06   -6.048607357272386e-06
-3.083759521899671e-05   2.7002452918864777e-06   -6.048607357272386e-06
-1.2922210849985823e-05   6.579577917682167e-07   -3.468220880555297e-05
-1.2922210849985823e-05   6.579577917682167e-07   -3.468220880555297e-05
-1.2922210849985823e-05   6.579577917682167e-07   -3.468220880555297e-05
-1.2922210849985823e-05   6.579577917682167e-07   -3.468220880555297e-05
-3.083759521899682e-05   0.0   -6.693289741484005e-05
-3.083759521899682e-05   0.0   -6.693289741484005e-05
-3.083759521899682e-05   0.0   -6.693289741484005e-05
-3.083759521899682e-05   0.0   -6.693289741484005e-05
5.692978815543774e-06   2.7002452918864777e-06   -4.428460182140511e-06
5.692978815543774e-06   2.7002452918864777e-06   -4.428460182140511e-06
5.692978815543774e-06   2.7002452918864777e-06   -4.428460182140511e-06
5.692978815543774e-06   2.7002452918864777e-06   -4.428460182140511e-06
6.538217918130002e-06   0.0   -6.389563754402167e-05
6.538217918130002e-06   0.0   -6.389563754402167e-05
6.538217918130002e-06   0.0   -6.389563754402167e-05
6.538217918130002e-06   0.0   -6.389563754402167e-05
-3.0201035189153503e-05   4.483929098599357e-06   -5.353906491042028e-06
-3.0201035189153503e-05   4.483929098599357e-06   -5.353906491042028e-06
-3.0201035189153503e-05   4.483929098599357e-06   -5.353906491042028e-06
-3.0201035189153503e-05   4.483929098599357e-06   -5.353906491042028e-06
-1.2149688650433382e-05   2.53104989234856e-06   -3.426775653182514e-05
-1.2149688650433382e-05   2.53104989234856e-06   -3.426775653182514e-05
-1.2149688650433382e-05   2.53104989234856e-06   -3.426775653182514e-05
-1.2149688650433382e-05   2.53104989234856e-06   -3.426775653182514e-05
4.270441906778245e-06   0.0   -6.427583641653852e-05
4.270441906778245e-06   0.0   -6.427583641653852e-05
4.270441906778245e-06   0.0   -6.427583641653852e-05
4.270441906778245e-06   0.0   -6.427583641653852e-05
4.449160761435947e-05   -5.218389841634644e-06   -3.7159414221720984e-07
4.449160761435947e-05   -5.218389841634644e-06   -3.7159414221720984e-07
4.449160761435947e-05   -5.218389841634644e-06   -3.7159414221720984e-07
4.449160761435947e-05   -5.218389841634644e-06   -3.7159414221720984e-07
4.4564965298915835e-05   0.0   -6.776708171273535e-05
4.4564965298915835e-05   0.0   -6.776708171273535e-05
4.4564965298915835e-05   0.0   -6.776708171273535e-05
4.4564965298915835e-05   0.0   -6.776708171273535e-05
5.065780927414521e-06   -3.9351143460767784e-06   4.2596084741291394e-07
5.065780927414521e-06   -3.9351143460767784e-06   4.2596084741291394e-07
5.065780927414521e-06   -3.9351143460767784e-06   4.2596084741291394e-07
5.065780927414521e-06   -3.9351143460767784e-06   4.2596084741291394e-07
2.441770360284704e-05   -2.9093710801640217e-06   -3.244268957118892e-05
2.441770360284704e-05   -2.9093710801640217e-06   -3.244268957118892e-05
2.441770360284704e-05   -2.9093710801640217e-06   -3.244268957118892e-05
2.441770360284704e-05   -2.9093710801640217e-06   -3.244268957118892e-05
5.065780927414521e-06   0.0   -6.540601310508927e-05
5.065780927414521e-06   0.0   -6.540601310508927e-05
5.065780927414521e-06   0.0   -6.540601310508927e-05
5.065780927414521e-06   0.0   -6.540601310508927e-05
4.4564965298915835e-05   -3.9351143460767784e-06   -1.935107760233165e-06
4.4564965298915835e-05   -3.9351143460767784e-06   -1.935107760233165e-06
4.4564965298915835e-05   -3.9351143460767784e-06   -1.935107760233165e-06
4.4564965298915835e-05   -3.9351143460767784e-06   -1.935107760233165e-06
4.4369139708314567e-05   0.0   -6.679935213655712e-05
4.4369139708314567e-05   0.0   -6.679935213655712e-05
4.4369139708314567e-05   0.0   -6.679935213655712e-05
4.4369139708314567e-05   0.0   -6.679935213655712e-05
5.692978815543774e-06   -2.477669828081588e-06   -8.524820850901853e-07
5.692978815543774e-06   -2.477669828081588e-06   -8.524820850901853e-07
5.692978815543774e-06   -2.477669828081588e-06   -8.524820850901853e-07
5.692978815543774e-06   -2.477669828081588e-06   -8.524820850901853e-07
2.4717460317864542e-05   -1.1611158595565386e-06   -3.33498836367398e-05
2.4717460317864542e-05   -1.1611158595565386e-06   -3.33498836367398e-05
2.4717460317864542e-05   -1.1611158595565386e-06   -3.33498836367398e-05
2.4717460317864542e-05   -1.1611158595565386e-06   -3.33498836367398e-05
5.69297881554377e-06   0.0   -6.53127502397081e-05
5.69297881554377e-06   0.0   -6.53127502397081e-05
5.69297881554377e-06   0.0   -6.53127502397081e-05
5.69297881554377e-06   0.0   -6.53127502397081e-05
4.4369139708314567e-05   -2.477669828081588e-06   -2.339083981939139e-06
4.4369139708314567e-05   -2.477669828081588e-06   -2.339083981939139e-06
4.4369139708314567e-05   -2.477669828081588e-06   -2.339083981939139e-06
4.4369139708314567e-05   -2.477669828081588e-06   -2.339083981939139e-06
4.522367023923447e-05   0.0   -6.420697006959747e-05
4.522367023923447e-05   0.0   -6.420697006959747e-05
4.522367023923447e-05   0.0   -6.420697006959747e-05
4.522367023923447e-05   0.0   -6.420697006959747e-05
6.538217918130014e-06   -5.188875426261693e-07   5.801163244856439e-07
6.538217918130014e-06   -5.188875426261693e-07   5.801163244856439e-07
6.538217918130014e-06   -5.188875426261693e-07   5.801163244856439e-07
6.538217918130014e-06   -5.188875426261693e-07   5.801163244856439e-07
2.5458324527389102e-05   9.214834750922299e-07   -3.181761730157718e-05
2.5458324527389102e-05   9.214834750922299e-07   -3.181761730157718e-05
2.5458324527389102e-05   9.214834750922299e-07   -3.181761730157718e-05
2.5458324527389102e-05   9.214834750922299e-07   -3.181761730157718e-05
4.449160761435947e-05   0.0   -6.74068703215193e-05
4.449160761435947e-05   0.0   -6.74068703215193e-05
4.449160761435947e-05   0.0   -6.74068703215193e-05
4.449160761435947e-05   0.0   -6.74068703215193e-05
0.0001004157239173916   -1.32247219599677e-05   1.7865157007554194e-05
0.0001004157239173916   -1.32247219599677e-05   1.7865157007554194e-05
0.0001004157239173916   -1.32247219599677e-05   1.7865157007554194e-05
0.0001004157239173916   -1.32247219599677e-05   1.7865157007554194e-05
9.429909323384744e-05   0.0   -7.452018616348836e-05
9.429909323384744e-05   0.0   -7.452018616348836e-05
9.429909323384744e-05   0.0   -7.452018616348836e-05
9.429909323384744e-05   0.0   -7.452018616348836e-05
4.4564965298915835e-05   -1.1255174084588351e-05   1.512313151215064e-05
4.4564965298915835e-05   -1.1255174084588351e-05   1.512313151215064e-05
4.4564965298915835e-05   -1.1255174084588351e-05   1.512313151215064e-05
4.4564965298915835e-05   -1.1255174084588351e-05   1.512313151215064e-05
6.939535042410345e-05   -5.927763201640882e-06   -2.9457290226263838e-05
6.939535042410345e-05   -5.927763201640882e-06   -2.9457290226263838e-05
6.939535042410345e-05   -5.927763201640882e-06   -2.9457290226263838e-05
6.939535042410345e-05   -5.927763201640882e-06   -2.9457290226263838e-05
4.45649652989158e-05   0.0   -6.776708171273528e-05
4.45649652989158e-05   0.0   -6.776708171273528e-05
4.45649652989158e-05   0.0   -6.776708171273528e-05
4.45649652989158e-05   0.0   -6.776708171273528e-05
9.429909323384712e-05   -1.125517408458831e-05   8.370027061397586e-06
9.429909323384712e-05   -1.125517408458831e-05   8.370027061397586e-06
9.429909323384712e-05   -1.125517408458831e-05   8.370027061397586e-06
9.429909323384712e-05   -1.125517408458831e-05   8.370027061397586e-06
9.147622973433427e-05   0.0   -7.297081633630353e-05
9.147622973433427e-05   0.0   -7.297081633630353e-05
9.147622973433427e-05   0.0   -7.297081633630353e-05
9.147622973433427e-05   0.0   -7.297081633630353e-05
4.4369139708314567e-05   -1.0285773666244026e-05   1.171246457347573e-05
4.4369139708314567e-05   -1.0285773666244026e-05   1.171246457347573e-05
4.4369139708314567e-05   -1.0285773666244026e-05   1.171246457347573e-05
4.4369139708314567e-05   -1.0285773666244026e-05   1.171246457347573e-05
6.802059751662501e-05   -4.336445519640162e-06   -3.127622866167069e-05
6.802059751662501e-05   -4.336445519640162e-06   -3.127622866167069e-05
6.802059751662501e-05   -4.336445519640162e-06   -3.127622866167069e-05
6.802059751662501e-05   -4.336445519640162e-06   -3.127622866167069e-05
4.4369139708314567e-05   0.0   -6.679935213655712e-05
4.4369139708314567e-05   0.0   -6.679935213655712e-05
4.4369139708314567e-05   0.0   -6.679935213655712e-05
4.4369139708314567e-05   0.0   -6.679935213655712e-05
9.147622973433396e-05   -1.0285773666243999e-05   5.54100037372928e-06
9.147622973433396e-05   -1.0285773666243999e-05   5.54100037372928e-06
9.147622973433396e-05   -1.0285773666243999e-05   5.54100037372928e-06
9.147622973433396e-05   -1.0285773666243999e-05   5.54100037372928e-06
8.727724697417375e-05   0.0   -6.90057247757417e-05
8.727724697417375e-05   0.0   -6.90057247757417e-05
8.727724697417375e-05   0.0   -6.90057247757417e-05
8.727724697417375e-05   0.0   -6.90057247757417e-05
4.522367023923447e-05   -7.997924510240564e-06   5.882324488634905e-06
4.522367023923447e-05   -7.997924510240564e-06   5.882324488634905e-06
4.522367023923447e-05   -7.997924510240564e-06   5.882324488634905e-06
4.522367023923447e-05   -7.997924510240564e-06   5.882324488634905e-06
6.582319334124424e-05   -1.8386438659872515e-06   -3.214578240126667e-05
6.582319334124424e-05   -1.8386438659872515e-06   -3.214578240126667e-05
6.582319334124424e-05   -1.8386438659872515e-06   -3.214578240126667e-05
6.582319334124424e-05   -1.8386438659872515e-06   -3.214578240126667e-05
-9.8211103946492e-05   1.2541594093520907e-05   -6.440486402494938e-05
-9.8211103946492e-05   1.2541594093520907e-05   -6.440486402494938e-05
-9.8211103946492e-05   1.2541594093520907e-05   -6.440486402494938e-05
-9.8211103946492e-05   1.2541594093520907e-05   -6.440486402494938e-05
-6.289997666028063e-05   1.1280752619664412e-05   -6.3094900989109685e-06
-6.289997666028063e-05   1.1280752619664412e-05   -6.3094900989109685e-06