<?xml version="1.0"?> 
<VTKFile type="UnstructuredGrid"> 
   <UnstructuredGrid> 
      <Piece NumberOfPoints="6000"  NumberOfCells="1500">  
          <Points>  
             <DataArray type="Float64" NumberOfComponents="3" format="ascii">   
-500.0   0.0   0.0
-450.0   0.0   0.0
-500.0   30.0   0.0
-500.0   0.0   16.666666666666668
-450.0   0.0   0.0
-450.0   30.0   0.0
-500.0   30.0   0.0
-450.0   30.0   16.666666666666668
-500.0   0.0   16.666666666666668
-500.0   30.0   16.666666666666668
-450.0   30.0   16.666666666666668
-500.0   30.0   0.0
-500.0   0.0   16.666666666666668
-450.0   30.0   16.666666666666668
-450.0   0.0   16.666666666666668
-450.0   0.0   0.0
-500.0   0.0   16.666666666666668
-450.0   30.0   16.666666666666668
-450.0   0.0   0.0
-500.0   30.0   0.0
-500.0   0.0   16.666666666666668
-450.0   0.0   16.666666666666668
-500.0   30.0   16.666666666666668
-500.0   0.0   33.333333333333336
-450.0   0.0   16.666666666666668
-450.0   30.0   16.666666666666668
-500.0   30.0   16.666666666666668
-450.0   30.0   33.333333333333336
-500.0   0.0   33.333333333333336
-500.0   30.0   33.333333333333336
-450.0   30.0   33.333333333333336
-500.0   30.0   16.666666666666668
-500.0   0.0   33.333333333333336
-450.0   30.0   33.333333333333336
-450.0   0.0   33.333333333333336
-450.0   0.0   16.666666666666668
-500.0   0.0   33.333333333333336
-450.0   30.0   33.333333333333336
-450.0   0.0   16.666666666666668
-500.0   30.0   16.666666666666668
-500.0   0.0   33.333333333333336
-450.0   0.0   33.333333333333336
-500.0   30.0   33.333333333333336
-500.0   0.0   50.0
-450.0   0.0   33.333333333333336
-450.0   30.0   33.333333333333336
-500.0   30.0   33.333333333333336
-450.0   30.0   50.0
-500.0   0.0   50.0
-500.0   30.0   50.0
-450.0   30.0   50.0
-500.0   30.0   33.333333333333336
-500.0   0.0   50.0
-450.0   30.0   50.0
-450.0   0.0   50.0
-450.0   0.0   33.333333333333336
-500.0   0.0   50.0
-450.0   30.0   50.0
-450.0   0.0   33.333333333333336
-500.0   30.0   33.333333333333336
-500.0   30.0   0.0
-450.0   30.0   0.0
-500.0   60.0   0.0
-500.0   30.0   16.666666666666668
-450.0   30.0   0.0
-450.0   60.0   0.0
-500.0   60.0   0.0
-450.0   60.0   16.666666666666668
-500.0   30.0   16.666666666666668
-500.0   60.0   16.666666666666668
-450.0   60.0   16.666666666666668
-500.0   60.0   0.0
-500.0   30.0   16.666666666666668
-450.0   60.0   16.666666666666668
-450.0   30.0   16.666666666666668
-450.0   30.0   0.0
-500.0   30.0   16.666666666666668
-450.0   60.0   16.666666666666668
-450.0   30.0   0.0
-500.0   60.0   0.0
-500.0   30.0   16.666666666666668
-450.0   30.0   16.666666666666668
-500.0   60.0   16.666666666666668
-500.0   30.0   33.333333333333336
-450.0   30.0   16.666666666666668
-450.0   60.0   16.666666666666668
-500.0   60.0   16.666666666666668
-450.0   60.0   33.333333333333336
-500.0   30.0   33.333333333333336
-500.0   60.0   33.333333333333336
-450.0   60.0   33.333333333333336
-500.0   60.0   16.666666666666668
-500.0   30.0   33.333333333333336
-450.0   60.0   33.333333333333336
-450.0   30.0   33.333333333333336
-450.0   30.0   16.666666666666668
-500.0   30.0   33.333333333333336
-450.0   60.0   33.333333333333336
-450.0   30.0   16.666666666666668
-500.0   60.0   16.666666666666668
-500.0   30.0   33.333333333333336
-450.0   30.0   33.333333333333336
-500.0   60.0   33.333333333333336
-500.0   30.0   50.0
-450.0   30.0   33.333333333333336
-450.0   60.0   33.333333333333336
-500.0   60.0   33.333333333333336
-450.0   60.0   50.0
-500.0   30.0   50.0
-500.0   60.0   50.0
-450.0   60.0   50.0
-500.0   60.0   33.333333333333336
-500.0   30.0   50.0
-450.0   60.0   50.0
-450.0   30.0   50.0
-450.0   30.0   33.333333333333336
-500.0   30.0   50.0
-450.0   60.0   50.0
-450.0   30.0   33.333333333333336
-500.0   60.0   33.333333333333336
-500.0   60.0   0.0
-450.0   60.0   0.0
-500.0   90.0   0.0
-500.0   60.0   16.666666666666668
-450.0   60.0   0.0
-450.0   90.0   0.0
-500.0   90.0   0.0
-450.0   90.0   16.666666666666668
-500.0   60.0   16.666666666666668
-500.0   90.0   16.666666666666668
-450.0   90.0   16.666666666666668
-500.0   90.0   0.0
-500.0   60.0   16.666666666666668
-450.0   90.0   16.666666666666668
-450.0   60.0   16.666666666666668
-450.0   60.0   0.0
-500.0   60.0   16.666666666666668
-450.0   90.0   16.666666666666668
-450.0   60.0   0.0
-500.0   90.0   0.0
-500.0   60.0   16.666666666666668
-450.0   60.0   16.666666666666668
-500.0   90.0   16.666666666666668
-500.0   60.0   33.333333333333336
-450.0   60.0   16.666666666666668
-450.0   90.0   16.666666666666668
-500.0   90.0   16.666666666666668
-450.0   90.0   33.333333333333336
-500.0   60.0   33.333333333333336
-500.0   90.0   33.333333333333336
-450.0   90.0   33.333333333333336
-500.0   90.0   16.666666666666668
-500.0   60.0   33.333333333333336
-450.0   90.0   33.333333333333336
-450.0   60.0   33.333333333333336
-450.0   60.0   16.666666666666668
-500.0   60.0   33.333333333333336
-450.0   90.0   33.333333333333336
-450.0   60.0   16.666666666666668
-500.0   90.0   16.666666666666668
-500.0   60.0   33.333333333333336
-450.0   60.0   33.333333333333336
-500.0   90.0   33.333333333333336
-500.0   60.0   50.0
-450.0   60.0   33.333333333333336
-450.0   90.0   33.333333333333336
-500.0   90.0   33.333333333333336
-450.0   90.0   50.0
-500.0   60.0   50.0
-500.0   90.0   50.0
-450.0   90.0   50.0
-500.0   90.0   33.333333333333336
-500.0   60.0   50.0
-450.0   90.0   50.0
-450.0   60.0   50.0
-450.0   60.0   33.333333333333336
-500.0   60.0   50.0
-450.0   90.0   50.0
-450.0   60.0   33.333333333333336
-500.0   90.0   33.333333333333336
-500.0   90.0   0.0
-450.0   90.0   0.0
-500.0   120.0   0.0
-500.0   90.0   16.666666666666668
-450.0   90.0   0.0
-450.0   120.0   0.0
-500.0   120.0   0.0
-450.0   120.0   16.666666666666668
-500.0   90.0   16.666666666666668
-500.0   120.0   16.666666666666668
-450.0   120.0   16.666666666666668
-500.0   120.0   0.0
-500.0   90.0   16.666666666666668
-450.0   120.0   16.666666666666668
-450.0   90.0   16.666666666666668
-450.0   90.0   0.0
-500.0   90.0   16.666666666666668
-450.0   120.0   16.666666666666668
-450.0   90.0   0.0
-500.0   120.0   0.0
-500.0   90.0   16.666666666666668
-450.0   90.0   16.666666666666668
-500.0   120.0   16.666666666666668
-500.0   90.0   33.333333333333336
-450.0   90.0   16.666666666666668
-450.0   120.0   16.666666666666668
-500.0   120.0   16.666666666666668
-450.0   120.0   33.333333333333336
-500.0   90.0   33.333333333333336
-500.0   120.0   33.333333333333336
-450.0   120.0   33.333333333333336
-500.0   120.0   16.666666666666668
-500.0   90.0   33.333333333333336
-450.0   120.0   33.333333333333336
-450.0   90.0   33.333333333333336
-450.0   90.0   16.666666666666668
-500.0   90.0   33.333333333333336
-450.0   120.0   33.333333333333336
-450.0   90.0   16.666666666666668
-500.0   120.0   16.666666666666668
-500.0   90.0   33.333333333333336
-450.0   90.0   33.333333333333336
-500.0   120.0   33.333333333333336
-500.0   90.0   50.0
-450.0   90.0   33.333333333333336
-450.0   120.0   33.333333333333336
-500.0   120.0   33.333333333333336
-450.0   120.0   50.0
-500.0   90.0   50.0
-500.0   120.0   50.0
-450.0   120.0   50.0
-500.0   120.0   33.333333333333336
-500.0   90.0   50.0
-450.0   120.0   50.0
-450.0   90.0   50.0
-450.0   90.0   33.333333333333336
-500.0   90.0   50.0
-450.0   120.0   50.0
-450.0   90.0   33.333333333333336
-500.0   120.0   33.333333333333336
-500.0   120.0   0.0
-450.0   120.0   0.0
-500.0   150.0   0.0
-500.0   120.0   16.666666666666668
-450.0   120.0   0.0
-450.0   150.0   0.0
-500.0   150.0   0.0
-450.0   150.0   16.666666666666668
-500.0   120.0   16.666666666666668
-500.0   150.0   16.666666666666668
-450.0   150.0   16.666666666666668
-500.0   150.0   0.0
-500.0   120.0   16.666666666666668
-450.0   150.0   16.666666666666668
-450.0   120.0   16.666666666666668
-450.0   120.0   0.0
-500.0   120.0   16.666666666666668
-450.0   150.0   16.666666666666668
-450.0   120.0   0.0
-500.0   150.0   0.0
-500.0   120.0   16.666666666666668
-450.0   120.0   16.666666666666668
-500.0   150.0   16.666666666666668
-500.0   120.0   33.333333333333336
-450.0   120.0   16.666666666666668
-450.0   150.0   16.666666666666668
-500.0   150.0   16.666666666666668
-450.0   150.0   33.333333333333336
-500.0   120.0   33.333333333333336
-500.0   150.0   33.333333333333336
-450.0   150.0   33.333333333333336
-500.0   150.0   16.666666666666668
-500.0   120.0   33.333333333333336
-450.0   150.0   33.333333333333336
-450.0   120.0   33.333333333333336
-450.0   120.0   16.666666666666668
-500.0   120.0   33.333333333333336
-450.0   150.0   33.333333333333336
-450.0   120.0   16.666666666666668
-500.0   150.0   16.666666666666668
-500.0   120.0   33.333333333333336
-450.0   120.0   33.333333333333336
-500.0   150.0   33.333333333333336
-500.0   120.0   50.0
-450.0   120.0   33.333333333333336
-450.0   150.0   33.333333333333336
-500.0   150.0   33.333333333333336
-450.0   150.0   50.0
-500.0   120.0   50.0
-500.0   150.0   50.0
-450.0   150.0   50.0
-500.0   150.0   33.333333333333336
-500.0   120.0   50.0
-450.0   150.0   50.0
-450.0   120.0   50.0
-450.0   120.0   33.333333333333336
-500.0   120.0   50.0
-450.0   150.0   50.0
-450.0   120.0   33.333333333333336
-500.0   150.0   33.333333333333336
-450.0   0.0   0.0
-400.0   0.0   0.0
-450.0   30.0   0.0
-450.0   0.0   16.666666666666668
-400.0   0.0   0.0
-400.0   30.0   0.0
-450.0   30.0   0.0
-400.0   30.0   16.666666666666668
-450.0   0.0   16.666666666666668
-450.0   30.0   16.666666666666668
-400.0   30.0   16.666666666666668
-450.0   30.0   0.0
-450.0   0.0   16.666666666666668
-400.0   30.0   16.666666666666668
-400.0   0.0   16.666666666666668
-400.0   0.0   0.0
-450.0   0.0   16.666666666666668
-400.0   30.0   16.666666666666668
-400.0   0.0   0.0
-450.0   30.0   0.0
-450.0   0.0   16.666666666666668
-400.0   0.0   16.666666666666668
-450.0   30.0   16.666666666666668
[...]
          <PointData>  
             <DataArray type="Float64" NumberOfComponents="3" Name="Strains" format="ascii">   
-0.00010063189759967434   0.0   -6.60279900268542e-05
-0.00010063189759967434   0.0   -6.60279900268542e-05
-0.00010063189759967434   0.0   -6.60279900268542e-05
-0.00010063189759967434   0.0   -6.60279900268542e-05
-6.403569818432429e-05   1.1150327294092138e-05   1.6558720418510396e-06
-6.403569818432429e-05   1.1150327294092138e-05   1.6558720418510396e-06
-6.403569818432429e-05   1.1150327294092138e-05   1.6558720418510396e-06
-6.403569818432429e-05   1.1150327294092138e-05   1.6558720418510396e-06
-6.277061967548773e-05   0.0   -6.231517048247303e-05
-6.277061967548773e-05   0.0   -6.231517048247303e-05
-6.277061967548773e-05   0.0   -6.231517048247303e-05
-6.277061967548773e-05   0.0   -6.231517048247303e-05
-0.00010531770089546239   1.3379890609270545e-05   5.686971852560314e-07
-0.00010531770089546239   1.3379890609270545e-05   5.686971852560314e-07
-0.00010531770089546239   1.3379890609270545e-05   5.686971852560314e-07
-0.00010531770089546239   1.3379890609270545e-05   5.686971852560314e-07
-8.170125863758088e-05   3.0940162869842882e-06   -3.2620515317841366e-05
-8.170125863758088e-05   3.0940162869842882e-06   -3.2620515317841366e-05
-8.170125863758088e-05   3.0940162869842882e-06   -3.2620515317841366e-05
-8.170125863758088e-05   3.0940162869842882e-06   -3.2620515317841366e-05
-0.00010531770089546258   0.0   -7.034310484803538e-05
-0.00010531770089546258   0.0   -7.034310484803538e-05
-0.00010531770089546258   0.0   -7.034310484803538e-05
-0.00010531770089546258   0.0   -7.034310484803538e-05
-6.277061967548773e-05   1.3379890609270558e-05   8.596631550818353e-06
-6.277061967548773e-05   1.3379890609270558e-05   8.596631550818353e-06
-6.277061967548773e-05   1.3379890609270558e-05   8.596631550818353e-06
-6.277061967548773e-05   1.3379890609270558e-05   8.596631550818353e-06
-6.294909331254676e-05   0.0   -6.384081701997938e-05
-6.294909331254676e-05   0.0   -6.384081701997938e-05
-6.294909331254676e-05   0.0   -6.384081701997938e-05
-6.294909331254676e-05   0.0   -6.384081701997938e-05
-0.00010860916001977583   1.4334244199164012e-05   3.6587476392375994e-06
-0.00010860916001977583   1.4334244199164012e-05   3.6587476392375994e-06
-0.00010860916001977583   1.4334244199164012e-05   3.6587476392375994e-06
-0.00010860916001977583   1.4334244199164012e-05   3.6587476392375994e-06
-8.413339710400452e-05   5.418573190046657e-06   -3.178478794824412e-05
-8.413339710400452e-05   5.418573190046657e-06   -3.178478794824412e-05
-8.413339710400452e-05   5.418573190046657e-06   -3.178478794824412e-05
-8.413339710400452e-05   5.418573190046657e-06   -3.178478794824412e-05
-0.00010860916001977601   0.0   -7.244136353947781e-05
-0.00010860916001977601   0.0   -7.244136353947781e-05
-0.00010860916001977601   0.0   -7.244136353947781e-05
-0.00010860916001977601   0.0   -7.244136353947781e-05
-6.294909331254676e-05   1.4334244199164039e-05   1.225929415873603e-05
-6.294909331254676e-05   1.4334244199164039e-05   1.225929415873603e-05
-6.294909331254676e-05   1.4334244199164039e-05   1.225929415873603e-05
-6.294909331254676e-05   1.4334244199164039e-05   1.225929415873603e-05
-6.291763973707799e-05   0.0   -6.423261878088611e-05
-6.291763973707799e-05   0.0   -6.423261878088611e-05
-6.291763973707799e-05   0.0   -6.423261878088611e-05
-6.291763973707799e-05   0.0   -6.423261878088611e-05
-0.00011569843139316574   1.6328730152992453e-05   1.3938129220798274e-05
-0.00011569843139316574   1.6328730152992453e-05   1.3938129220798274e-05
-0.00011569843139316574   1.6328730152992453e-05   1.3938129220798274e-05
-0.00011569843139316574   1.6328730152992453e-05   1.3938129220798274e-05
-8.576339987842685e-05   6.840620632159735e-06   -3.0260724257933525e-05
-8.576339987842685e-05   6.840620632159735e-06   -3.0260724257933525e-05
-8.576339987842685e-05   6.840620632159735e-06   -3.0260724257933525e-05
-8.576339987842685e-05   6.840620632159735e-06   -3.0260724257933525e-05
-6.40356981843244e-05   0.0   -5.93377936503989e-05
-6.40356981843244e-05   0.0   -5.93377936503989e-05
-6.40356981843244e-05   0.0   -5.93377936503989e-05
-6.40356981843244e-05   0.0   -5.93377936503989e-05
-2.9160527126990642e-05   4.089934337523306e-06   1.2414520476712991e-06
-2.9160527126990642e-05   4.089934337523306e-06   1.2414520476712991e-06
-2.9160527126990642e-05   4.089934337523306e-06   1.2414520476712991e-06
-2.9160527126990642e-05   4.089934337523306e-06   1.2414520476712991e-06
-2.8047595072739966e-05   0.0   -5.882193404067095e-05
-2.8047595072739966e-05   0.0   -5.882193404067095e-05
-2.8047595072739966e-05   0.0   -5.882193404067095e-05
-2.8047595072739966e-05   0.0   -5.882193404067095e-05
-6.277061967548773e-05   5.822060736336804e-06   -4.443462811226759e-06
-6.277061967548773e-05   5.822060736336804e-06   -4.443462811226759e-06
-6.277061967548773e-05   5.822060736336804e-06   -4.443462811226759e-06
-6.277061967548773e-05   5.822060736336804e-06   -4.443462811226759e-06
-4.60416466285321e-05   4.298830081066212e-07   -2.9089777919214494e-05
-4.60416466285321e-05   4.298830081066212e-07   -2.9089777919214494e-05
-4.60416466285321e-05   4.298830081066212e-07   -2.9089777919214494e-05
-4.60416466285321e-05   4.298830081066212e-07   -2.9089777919214494e-05
-6.277061967548768e-05   0.0   -6.231517048247298e-05
-6.277061967548768e-05   0.0   -6.231517048247298e-05
-6.277061967548768e-05   0.0   -6.231517048247298e-05
-6.277061967548768e-05   0.0   -6.231517048247298e-05
-2.8047595072739966e-05   5.822060736336804e-06   -9.502263694246795e-07
-2.8047595072739966e-05   5.822060736336804e-06   -9.502263694246795e-07
-2.8047595072739966e-05   5.822060736336804e-06   -9.502263694246795e-07
-2.8047595072739966e-05   5.822060736336804e-06   -9.502263694246795e-07
-2.7423130635195703e-05   0.0   -5.956060774031584e-05
-2.7423130635195703e-05   0.0   -5.956060774031584e-05
-2.7423130635195703e-05   0.0   -5.956060774031584e-05
-2.7423130635195703e-05   0.0   -5.956060774031584e-05
-6.294909331254676e-05   7.1336821327725635e-06   -4.630879224394301e-06
-6.294909331254676e-05   7.1336821327725635e-06   -4.630879224394301e-06
-6.294909331254676e-05   7.1336821327725635e-06   -4.630879224394301e-06
-6.294909331254676e-05   7.1336821327725635e-06   -4.630879224394301e-06
-4.509687515534163e-05   2.2954689517976594e-06   -3.14816482444843e-05
-4.509687515534163e-05   2.2954689517976594e-06   -3.14816482444843e-05
-4.509687515534163e-05   2.2954689517976594e-06   -3.14816482444843e-05
-4.509687515534163e-05   2.2954689517976594e-06   -3.14816482444843e-05
-6.294909331254676e-05   0.0   -6.384081701997938e-05
-6.294909331254676e-05   0.0   -6.384081701997938e-05
-6.294909331254676e-05   0.0   -6.384081701997938e-05
-6.294909331254676e-05   0.0   -6.384081701997938e-05
-2.7423130635195703e-05   7.1336821327725635e-06   -3.5066994473075577e-07
-2.7423130635195703e-05   7.1336821327725635e-06   -3.5066994473075577e-07
-2.7423130635195703e-05   7.1336821327725635e-06   -3.5066994473075577e-07
-2.7423130635195703e-05   7.1336821327725635e-06   -3.5066994473075577e-07
-2.685474628139038e-05   0.0   -5.925230201395818e-05
-2.685474628139038e-05   0.0   -5.925230201395818e-05
-2.685474628139038e-05   0.0   -5.925230201395818e-05
-2.685474628139038e-05   0.0   -5.925230201395818e-05
-6.291763973707783e-05   8.300527944879774e-06   -4.1277963547400686e-06
-6.291763973707783e-05   8.300527944879774e-06   -4.1277963547400686e-06
-6.291763973707783e-05   8.300527944879774e-06   -4.1277963547400686e-06
-6.291763973707783e-05   8.300527944879774e-06   -4.1277963547400686e-06
-4.490191979696855e-05   3.823762505017623e-06   -3.146793699100513e-05
-4.490191979696855e-05   3.823762505017623e-06   -3.146793699100513e-05
-4.490191979696855e-05   3.823762505017623e-06   -3.146793699100513e-05
-4.490191979696855e-05   3.823762505017623e-06   -3.146793699100513e-05
-2.9160527126990693e-05   0.0   -5.6883833047884917e-05
-2.9160527126990693e-05   0.0   -5.6883833047884917e-05
-2.9160527126990693e-05   0.0   -5.6883833047884917e-05
-2.9160527126990693e-05   0.0   -5.6883833047884917e-05
3.7911967136145695e-06   -5.236549873282448e-07   -2.2784863059396993e-06
3.7911967136145695e-06   -5.236549873282448e-07   -2.2784863059396993e-06
3.7911967136145695e-06   -5.236549873282448e-07   -2.2784863059396993e-06
3.7911967136145695e-06   -5.236549873282448e-07   -2.2784863059396993e-06
4.500907538903734e-06   0.0   -5.8202718809772964e-05
4.500907538903734e-06   0.0   -5.8202718809772964e-05
4.500907538903734e-06   0.0   -5.8202718809772964e-05
4.500907538903734e-06   0.0   -5.8202718809772964e-05
-2.804759507273992e-05   1.032025384829641e-06   -4.574429687931422e-06
-2.804759507273992e-05   1.032025384829641e-06   -4.574429687931422e-06
-2.804759507273992e-05   1.032025384829641e-06   -4.574429687931422e-06
-2.804759507273992e-05   1.032025384829641e-06   -4.574429687931422e-06
-1.232980979404343e-05   -1.0990714682402114e-06   -2.9492080373916888e-05
-1.232980979404343e-05   -1.0990714682402114e-06   -2.9492080373916888e-05
-1.232980979404343e-05   -1.0990714682402114e-06   -2.9492080373916888e-05
-1.232980979404343e-05   -1.0990714682402114e-06   -2.9492080373916888e-05
-2.8047595072739966e-05   0.0   -5.882193404067095e-05
-2.8047595072739966e-05   0.0   -5.882193404067095e-05
-2.8047595072739966e-05   0.0   -5.882193404067095e-05
-2.8047595072739966e-05   0.0   -5.882193404067095e-05
4.500907538903741e-06   1.032025384829641e-06   -3.955214457033638e-06
4.500907538903741e-06   1.032025384829641e-06   -3.955214457033638e-06
4.500907538903741e-06   1.032025384829641e-06   -3.955214457033638e-06
4.500907538903741e-06   1.032025384829641e-06   -3.955214457033638e-06
5.060864738225903e-06   0.0   -5.8119562344586767e-05
5.060864738225903e-06   0.0   -5.8119562344586767e-05
5.060864738225903e-06   0.0   -5.8119562344586767e-05
5.060864738225903e-06   0.0   -5.8119562344586767e-05
-2.7423130635195608e-05   2.4017423262149624e-06   -5.420615451279809e-06
-2.7423130635195608e-05   2.4017423262149624e-06   -5.420615451279809e-06
-2.7423130635195608e-05   2.4017423262149624e-06   -5.420615451279809e-06
-2.7423130635195608e-05   2.4017423262149624e-06   -5.420615451279809e-06
-1.1493365167257008e-05   5.853097467367388e-07   -3.088036501682394e-05
-1.1493365167257008e-05   5.853097467367388e-07   -3.088036501682394e-05
-1.1493365167257008e-05   5.853097467367388e-07   -3.088036501682394e-05
-1.1493365167257008e-05   5.853097467367388e-07   -3.088036501682394e-05
-2.7423130635195703e-05   0.0   -5.956060774031584e-05
-2.7423130635195703e-05   0.0   -5.956060774031584e-05
-2.7423130635195703e-05   0.0   -5.956060774031584e-05
-2.7423130635195703e-05   0.0   -5.956060774031584e-05
5.060864738225911e-06   2.4017423262149624e-06   -3.979570055550853e-06
5.060864738225911e-06   2.4017423262149624e-06   -3.979570055550853e-06
5.060864738225911e-06   2.4017423262149624e-06   -3.979570055550853e-06
5.060864738225911e-06   2.4017423262149624e-06   -3.979570055550853e-06
5.814770956450546e-06   0.0   -5.685931613002603e-05
5.814770956450546e-06   0.0   -5.685931613002603e-05
5.814770956450546e-06   0.0   -5.685931613002603e-05
5.814770956450546e-06   0.0   -5.685931613002603e-05
-2.685474628139031e-05   3.988309806553488e-06   -4.803106617556629e-06
-2.685474628139031e-05   3.988309806553488e-06   -4.803106617556629e-06
-2.685474628139031e-05   3.988309806553488e-06   -4.803106617556629e-06
-2.685474628139031e-05   3.988309806553488e-06   -4.803106617556629e-06
-1.0804179839372554e-05   2.251076341908092e-06   -3.051171060879903e-05
-1.0804179839372554e-05   2.251076341908092e-06   -3.051171060879903e-05
-1.0804179839372554e-05   2.251076341908092e-06   -3.051171060879903e-05
-1.0804179839372554e-05   2.251076341908092e-06   -3.051171060879903e-05
3.791196713614576e-06   0.0   -5.719802604028186e-05
3.791196713614576e-06   0.0   -5.719802604028186e-05
3.791196713614576e-06   0.0   -5.719802604028186e-05
3.791196713614576e-06   0.0   -5.719802604028186e-05
3.9558561258953873e-05   -4.639807544520207e-06   -3.6963632476177217e-07
3.9558561258953873e-05   -4.639807544520207e-06   -3.6963632476177217e-07
3.9558561258953873e-05   -4.639807544520207e-06   -3.6963632476177217e-07
3.9558561258953873e-05   -4.639807544520207e-06   -3.6963632476177217e-07
3.96264777834507e-05   0.0   -6.03016444684875e-05
3.96264777834507e-05   0.0   -6.03016444684875e-05
3.96264777834507e-05   0.0   -6.03016444684875e-05
3.96264777834507e-05   0.0   -6.03016444684875e-05
4.500907538903749e-06   -3.498209431190556e-06   3.3989826447173337e-07
4.500907538903749e-06   -3.498209431190556e-06   3.3989826447173337e-07
4.500907538903749e-06   -3.498209431190556e-06   3.3989826447173337e-07
4.500907538903749e-06   -3.498209431190556e-06   3.3989826447173337e-07
2.1708837248532636e-05   -2.5863486901713738e-06   -2.8887101029521225e-05
2.1708837248532636e-05   -2.5863486901713738e-06   -2.8887101029521225e-05
2.1708837248532636e-05   -2.5863486901713738e-06   -2.8887101029521225e-05
2.1708837248532636e-05   -2.5863486901713738e-06   -2.8887101029521225e-05
4.500907538903749e-06   0.0   -5.820271880977317e-05
4.500907538903749e-06   0.0   -5.820271880977317e-05
4.500907538903749e-06   0.0   -5.820271880977317e-05
4.500907538903749e-06   0.0   -5.820271880977317e-05
3.96264777834507e-05   -3.498209431190556e-06   -1.7590273942426034e-06
3.96264777834507e-05   -3.498209431190556e-06   -1.7590273942426034e-06
3.96264777834507e-05   -3.498209431190556e-06   -1.7590273942426034e-06
3.96264777834507e-05   -3.498209431190556e-06   -1.7590273942426034e-06
3.945467328914561e-05   0.0   -5.9440542378522384e-05
3.945467328914561e-05   0.0   -5.9440542378522384e-05
3.945467328914561e-05   0.0   -5.9440542378522384e-05
3.945467328914561e-05   0.0   -5.9440542378522384e-05
5.060864738225911e-06   -2.2016333898925247e-06   -7.96548093054043e-07
5.060864738225911e-06   -2.2016333898925247e-06   -7.96548093054043e-07
5.060864738225911e-06   -2.2016333898925247e-06   -7.96548093054043e-07
5.060864738225911e-06   -2.2016333898925247e-06   -7.96548093054043e-07
2.197779041402468e-05   -1.031519640624344e-06   -2.969349246894621e-05
2.197779041402468e-05   -1.031519640624344e-06   -2.969349246894621e-05
2.197779041402468e-05   -1.031519640624344e-06   -2.969349246894621e-05
2.197779041402468e-05   -1.031519640624344e-06   -2.969349246894621e-05
5.060864738225907e-06   0.0   -5.8119562344586814e-05
5.060864738225907e-06   0.0   -5.8119562344586814e-05
5.060864738225907e-06   0.0   -5.8119562344586814e-05
5.060864738225907e-06   0.0   -5.8119562344586814e-05
3.945467328914561e-05   -2.2016333898925247e-06   -2.1175281269895626e-06
3.945467328914561e-05   -2.2016333898925247e-06   -2.1175281269895626e-06
3.945467328914561e-05   -2.2016333898925247e-06   -2.1175281269895626e-06
3.945467328914561e-05   -2.2016333898925247e-06   -2.1175281269895626e-06
4.0216783342153156e-05   0.0   -5.7134834526796956e-05
4.0216783342153156e-05   0.0   -5.7134834526796956e-05
4.0216783342153156e-05   0.0   -5.7134834526796956e-05
4.0216783342153156e-05   0.0   -5.7134834526796956e-05
5.814770956450556e-06   -4.5919732795137293e-07   4.773711794781946e-07
5.814770956450556e-06   -4.5919732795137293e-07   4.773711794781946e-07
5.814770956450556e-06   -4.5919732795137293e-07   4.773711794781946e-07
5.814770956450556e-06   -4.5919732795137293e-07   4.773711794781946e-07
2.2638824040189518e-05   8.206065148249313e-07   -2.8330599599085824e-05
2.2638824040189518e-05   8.206065148249313e-07   -2.8330599599085824e-05
2.2638824040189518e-05   8.206065148249313e-07   -2.8330599599085824e-05
2.2638824040189518e-05   8.206065148249313e-07   -2.8330599599085824e-05
3.9558561258953873e-05   0.0   -5.998191056699398e-05
3.9558561258953873e-05   0.0   -5.998191056699398e-05
3.9558561258953873e-05   0.0   -5.998191056699398e-05
3.9558561258953873e-05   0.0   -5.998191056699398e-05
8.929627765712836e-05   -1.1760259147572714e-05   1.5858127941420367e-05
8.929627765712836e-05   -1.1760259147572714e-05   1.5858127941420367e-05
8.929627765712836e-05   -1.1760259147572714e-05   1.5858127941420367e-05
8.929627765712836e-05   -1.1760259147572714e-05   1.5858127941420367e-05
8.386046499695072e-05   0.0   -6.630607853841583e-05
8.386046499695072e-05   0.0   -6.630607853841583e-05
8.386046499695072e-05   0.0   -6.630607853841583e-05
8.386046499695072e-05   0.0   -6.630607853841583e-05
3.96264777834507e-05   -1.0007390116547208e-05   1.3421667554012521e-05
3.96264777834507e-05   -1.0007390116547208e-05   1.3421667554012521e-05
3.96264777834507e-05   -1.0007390116547208e-05   1.3421667554012521e-05
3.96264777834507e-05   -1.0007390116547208e-05   1.3421667554012521e-05
6.17095131279523e-05   -5.270139976184874e-06   -2.6225741437707495e-05
6.17095131279523e-05   -5.270139976184874e-06   -2.6225741437707495e-05
6.17095131279523e-05   -5.270139976184874e-06   -2.6225741437707495e-05
6.17095131279523e-05   -5.270139976184874e-06   -2.6225741437707495e-05
3.9626477783450664e-05   0.0   -6.0301644468487444e-05
3.9626477783450664e-05   0.0   -6.0301644468487444e-05
3.9626477783450664e-05   0.0   -6.0301644468487444e-05
3.9626477783450664e-05   0.0   -6.0301644468487444e-05
8.386046499695044e-05   -1.0007390116547181e-05   7.4172334840841856e-06
8.386046499695044e-05   -1.0007390116547181e-05   7.4172334840841856e-06
8.386046499695044e-05   -1.0007390116547181e-05   7.4172334840841856e-06
8.386046499695044e-05   -1.0007390116547181e-05   7.4172334840841856e-06
8.135285038237003e-05   0.0   -6.492751596792915e-05
8.135285038237003e-05   0.0   -6.492751596792915e-05
8.135285038237003e-05   0.0   -6.492751596792915e-05
8.135285038237003e-05   0.0   -6.492751596792915e-05
3.945467328914561e-05   -9.144955982344616e-06   1.0389752776851662e-05
3.945467328914561e-05   -9.144955982344616e-06   1.0389752776851662e-05
3.945467328914561e-05   -9.144955982344616e-06   1.0389752776851662e-05
3.945467328914561e-05   -9.144955982344616e-06   1.0389752776851662e-05
6.0489664082910335e-05   -3.854892916201374e-06   -2.7842603052442146e-05
6.0489664082910335e-05   -3.854892916201374e-06   -2.7842603052442146e-05
6.0489664082910335e-05   -3.854892916201374e-06   -2.7842603052442146e-05
6.0489664082910335e-05   -3.854892916201374e-06   -2.7842603052442146e-05
3.945467328914561e-05   0.0   -5.9440542378522384e-05
3.945467328914561e-05   0.0   -5.9440542378522384e-05
3.945467328914561e-05   0.0   -5.9440542378522384e-05
3.945467328914561e-05   0.0   -5.9440542378522384e-05
8.135285038236976e-05   -9.144955982344575e-06   4.90277918744486e-06
8.135285038236976e-05   -9.144955982344575e-06   4.90277918744486e-06
8.135285038236976e-05   -9.144955982344575e-06   4.90277918744486e-06
8.135285038236976e-05   -9.144955982344575e-06   4.90277918744486e-06
7.762117838159111e-05   0.0   -6.140034601264895e-05
7.762117838159111e-05   0.0   -6.140034601264895e-05
7.762117838159111e-05   0.0   -6.140034601264895e-05
7.762117838159111e-05   0.0   -6.140034601264895e-05
4.0216783342153156e-05   -7.109185809753518e-06   5.205823872266526e-06
4.0216783342153156e-05   -7.109185809753518e-06   5.205823872266526e-06
4.0216783342153156e-05   -7.109185809753518e-06   5.205823872266526e-06
4.0216783342153156e-05   -7.109185809753518e-06   5.205823872266526e-06
5.8537925835368425e-05   -1.6331696951055722e-06   -2.8615023285214336e-05
5.8537925835368425e-05   -1.6331696951055722e-06   -2.8615023285214336e-05
5.8537925835368425e-05   -1.6331696951055722e-06   -2.8615023285214336e-05
5.8537925835368425e-05   -1.6331696951055722e-06   -2.8615023285214336e-05
-8.732498610903604e-05   1.1150327294092124e-05   -5.7285230754083164e-05
-8.732498610903604e-05   1.1150327294092124e-05   -5.7285230754083164e-05
-8.732498610903604e-05   1.1150327294092124e-05   -5.7285230754083164e-05
-8.732498610903604e-05   1.1150327294092124e-05   -5.7285230754083164e-05