<?xml version="1.0"?> 
<VTKFile type="UnstructuredGrid"> 
   <UnstructuredGrid> 
      <Piece NumberOfPoints="6000"  NumberOfCells="1500">  
          <Points>  
             <DataArray type="Float64" NumberOfComponents="3" format="ascii">   
-500.0   0.0   0.0
-450.0   0.0   0.0
-500.0   30.0   0.0
-500.0   0.0   16.666666666666668
-450.0   0.0   0.0
-450.0   30.0   0.0
-500.0   30.0   0.0
-450.0   30.0   16.666666666666668
-500.0   0.0   16.666666666666668
-500.0   30.0   16.666666666666668
-450.0   30.0   16.666666666666668
-500.0   30.0   0.0
-500.0   0.0   16.666666666666668
-450.0   30.0   16.666666666666668
-450.0   0.0   16.666666666666668
-450.0   0.0   0.0
-500.0   0.0   16.666666666666668
-450.0   30.0   16.666666666666668
-450.0   0.0   0.0
-500.0   30.0   0.0
-500.0   0.0   16.666666666666668
-450.0   0.0   16.666666666666668
-500.0   30.0   16.666666666666668
-500.0   0.0   33.333333333333336
-450.0   0.0   16.666666666666668
-450.0   30.0   16.666666666666668
-500.0   30.0   16.666666666666668
-450.0   30.0   33.333333333333336
-500.0   0.0   33.333333333333336
-500.0   30.0   33.333333333333336
-450.0   30.0   33.333333333333336
-500.0   30.0   16.666666666666668
-500.0   0.0   33.333333333333336
-450.0   30.0   33.333333333333336
-450.0   0.0   33.333333333333336
-450.0   0.0   16.666666666666668
-500.0   0.0   33.333333333333336
-450.0   30.0   33.333333333333336
-450.0   0.0   16.666666666666668
-500.0   30.0   16.666666666666668
-500.0   0.0   33.333333333333336
-450.0   0.0   33.333333333333336
-500.0   30.0   33.333333333333336
-500.0   0.0   50.0
-450.0   0.0   33.333333333333336
-450.0   30.0   33.333333333333336
-500.0   30.0   33.333333333333336
-450.0   30.0   50.0
-500.0   0.0   50.0
-500.0   30.0   50.0
-450.0   30.0   50.0
-500.0   30.0   33.333333333333336
-500.0   0.0   50.0
-450.0   30.0   50.0
-450.0   0.0   50.0
-450.0   0.0   33.333333333333336
-500.0   0.0   50.0
-450.0   30.0   50.0
-450.0   0.0   33.333333333333336
-500.0   30.0   33.333333333333336
-500.0   30.0   0.0
-450.0   30.0   0.0
-500.0   60.0   0.0
-500.0   30.0   16.666666666666668
-450.0   30.0   0.0
-450.0   60.0   0.0
-500.0   60.0   0.0
-450.0   60.0   16.666666666666668
-500.0   30.0   16.666666666666668
-500.0   60.0   16.666666666666668
-450.0   60.0   16.666666666666668
-500.0   60.0   0.0
-500.0   30.0   16.666666666666668
-450.0   60.0   16.666666666666668
-450.0   30.0   16.666666666666668
-450.0   30.0   0.0
-500.0   30.0   16.666666666666668
-450.0   60.0   16.666666666666668
-450.0   30.0   0.0
-500.0   60.0   0.0
-500.0   30.0   16.666666666666668
-450.0   30.0   16.666666666666668
-500.0   60.0   16.666666666666668
-500.0   30.0   33.333333333333336
-450.0   30.0   16.666666666666668
-450.0   60.0   16.666666666666668
-500.0   60.0   16.666666666666668
-450.0   60.0   33.333333333333336
-500.0   30.0   33.333333333333336
-500.0   60.0   33.333333333333336
-450.0   60.0   33.333333333333336
-500.0   60.0   16.666666666666668
-500.0   30.0   33.333333333333336
-450.0   60.0   33.333333333333336
-450.0   30.0   33.333333333333336
-450.0   30.0   16.666666666666668
-500.0   30.0   33.333333333333336
-450.0   60.0   33.333333333333336
-450.0   30.0   16.666666666666668
-500.0   60.0   16.666666666666668
-500.0   30.0   33.333333333333336
-450.0   30.0   33.333333333333336
-500.0   60.0   33.333333333333336
-500.0   30.0   50.0
-450.0   30.0   33.333333333333336
-450.0   60.0   33.333333333333336
-500.0   60.0   33.333333333333336
-450.0   60.0   50.0
-500.0   30.0   50.0
-500.0   60.0   50.0
-450.0   60.0   50.0
-500.0   60.0   33.333333333333336
-500.0   30.0   50.0
-450.0   60.0   50.0
-450.0   30.0   50.0
-450.0   30.0   33.333333333333336
-500.0   30.0   50.0
-450.0   60.0   50.0
-450.0   30.0   33.333333333333336
-500.0   60.0   33.333333333333336
-500.0   60.0   0.0
-450.0   60.0   0.0
-500.0   90.0   0.0
-500.0   60.0   16.666666666666668
-450.0   60.0   0.0
-450.0   90.0   0.0
-500.0   90.0   0.0
-450.0   90.0   16.666666666666668
-500.0   60.0   16.666666666666668
-500.0   90.0   16.666666666666668
-450.0   90.0   16.666666666666668
-500.0   90.0   0.0
-500.0   60.0   16.666666666666668
-450.0   90.0   16.666666666666668
-450.0   60.0   16.666666666666668
-450.0   60.0   0.0
-500.0   60.0   16.666666666666668
-450.0   90.0   16.666666666666668
-450.0   60.0   0.0
-500.0   90.0   0.0
-500.0   60.0   16.666666666666668
-450.0   60.0   16.666666666666668
-500.0   90.0   16.666666666666668
-500.0   60.0   33.333333333333336
-450.0   60.0   16.666666666666668
-450.0   90.0   16.666666666666668
-500.0   90.0   16.666666666666668
-450.0   90.0   33.333333333333336
-500.0   60.0   33.333333333333336
-500.0   90.0   33.333333333333336
-450.0   90.0   33.333333333333336
-500.0   90.0   16.666666666666668
-500.0   60.0   33.333333333333336
-450.0   90.0   33.333333333333336
-450.0   60.0   33.333333333333336
-450.0   60.0   16.666666666666668
-500.0   60.0   33.333333333333336
-450.0   90.0   33.333333333333336
-450.0   60.0   16.666666666666668
-500.0   90.0   16.666666666666668
-500.0   60.0   33.333333333333336
-450.0   60.0   33.333333333333336
-500.0   90.0   33.333333333333336
-500.0   60.0   50.0
-450.0   60.0   33.333333333333336
-450.0   90.0   33.333333333333336
-500.0   90.0   33.333333333333336
-450.0   90.0   50.0
-500.0   60.0   50.0
-500.0   90.0   50.0
-450.0   90.0   50.0
-500.0   90.0   33.333333333333336
-500.0   60.0   50.0
-450.0   90.0   50.0
-450.0   60.0   50.0
-450.0   60.0   33.333333333333336
-500.0   60.0   50.0
-450.0   90.0   50.0
-450.0   60.0   33.333333333333336
-500.0   90.0   33.333333333333336
-500.0   90.0   0.0
-450.0   90.0   0.0
-500.0   120.0   0.0
-500.0   90.0   16.666666666666668
-450.0   90.0   0.0
-450.0   120.0   0.0
-500.0   120.0   0.0
-450.0   120.0   16.666666666666668
-500.0   90.0   16.666666666666668
-500.0   120.0   16.666666666666668
-450.0   120.0   16.666666666666668
-500.0   120.0   0.0
-500.0   90.0   16.666666666666668
-450.0   120.0   16.666666666666668
-450.0   90.0   16.666666666666668
-450.0   90.0   0.0
-500.0   90.0   16.666666666666668
-450.0   120.0   16.666666666666668
-450.0   90.0   0.0
-500.0   120.0   0.0
-500.0   90.0   16.666666666666668
-450.0   90.0   16.666666666666668
-500.0   120.0   16.666666666666668
-500.0   90.0   33.333333333333336
-450.0   90.0   16.666666666666668
-450.0   120.0   16.666666666666668
-500.0   120.0   16.666666666666668
-450.0   120.0   33.333333333333336
-500.0   90.0   33.333333333333336
-500.0   120.0   33.333333333333336
-450.0   120.0   33.333333333333336
-500.0   120.0   16.666666666666668
-500.0   90.0   33.333333333333336
-450.0   120.0   33.333333333333336
-450.0   90.0   33.333333333333336
-450.0   90.0   16.666666666666668
-500.0   90.0   33.333333333333336
-450.0   120.0   33.333333333333336
-450.0   90.0   16.666666666666668
-500.0   120.0   16.666666666666668
-500.0   90.0   33.333333333333336
-450.0   90.0   33.333333333333336
-500.0   120.0   33.333333333333336
-500.0   90.0   50.0
-450.0   90.0   33.333333333333336
-450.0   120.0   33.333333333333336
-500.0   120.0   33.333333333333336
-450.0   120.0   50.0
-500.0   90.0   50.0
-500.0   120.0   50.0
-450.0   120.0   50.0
-500.0   120.0   33.333333333333336
-500.0   90.0   50.0
-450.0   120.0   50.0
-450.0   90.0   50.0
-450.0   90.0   33.333333333333336
-500.0   90.0   50.0
-450.0   120.0   50.0
-450.0   90.0   33.333333333333336
-500.0   120.0   33.333333333333336
-500.0   120.0   0.0
-450.0   120.0   0.0
-500.0   150.0   0.0
-500.0   120.0   16.666666666666668
-450.0   120.0   0.0
-450.0   150.0   0.0
-500.0   150.0   0.0
-450.0   150.0   16.666666666666668
-500.0   120.0   16.666666666666668
-500.0   150.0   16.666666666666668
-450.0   150.0   16.666666666666668
-500.0   150.0   0.0
-500.0   120.0   16.666666666666668
-450.0   150.0   16.666666666666668
-450.0   120.0   16.666666666666668
-450.0   120.0   0.0
-500.0   120.0   16.666666666666668
-450.0   150.0   16.666666666666668
-450.0   120.0   0.0
-500.0   150.0   0.0
-500.0   120.0   16.666666666666668
-450.0   120.0   16.666666666666668
-500.0   150.0   16.666666666666668
-500.0   120.0   33.333333333333336
-450.0   120.0   16.666666666666668
-450.0   150.0   16.666666666666668
-500.0   150.0   16.666666666666668
-450.0   150.0   33.333333333333336
-500.0   120.0   33.333333333333336
-500.0   150.0   33.333333333333336
-450.0   150.0   33.333333333333336
-500.0   150.0   16.666666666666668
-500.0   120.0   33.333333333333336
-450.0   150.0   33.333333333333336
-450.0   120.0   33.333333333333336
-450.0   120.0   16.666666666666668
-500.0   120.0   33.333333333333336
-450.0   150.0   33.333333333333336
-450.0   120.0   16.666666666666668
-500.0   150.0   16.666666666666668
-500.0   120.0   33.333333333333336
-450.0   120.0   33.333333333333336
-500.0   150.0   33.333333333333336
-500.0   120.0   50.0
-450.0   120.0   33.333333333333336
-450.0   150.0   33.333333333333336
-500.0   150.0   33.333333333333336
-450.0   150.0   50.0
-500.0   120.0   50.0
-500.0   150.0   50.0
-450.0   150.0   50.0
-500.0   150.0   33.333333333333336
-500.0   120.0   50.0
-450.0   150.0   50.0
-450.0   120.0   50.0
-450.0   120.0   33.333333333333336
-500.0   120.0   50.0
-450.0   150.0   50.0
-450.0   120.0   33.333333333333336
-500.0   150.0   33.333333333333336
-450.0   0.0   0.0
-400.0   0.0   0.0
-450.0   30.0   0.0
-450.0   0.0   16.666666666666668
-400.0   0.0   0.0
-400.0   30.0   0.0
-450.0   30.0   0.0
-400.0   30.0   16.666666666666668
-450.0   0.0   16.666666666666668
-450.0   30.0   16.666666666666668
-400.0   30.0   16.666666666666668
-450.0   30.0   0.0
-450.0   0.0   16.666666666666668
-400.0   30.0   16.666666666666668
-400.0   0.0   16.666666666666668
-400.0   0.0   0.0
-450.0   0.0   16.666666666666668
-400.0   30.0   16.666666666666668
-400.0   0.0   0.0
-450.0   30.0   0.0
-450.0   0.0   16.666666666666668
-400.0   0.0   16.666666666666668
-450.0   30.0   16.666666666666668
[...]
          <PointData>  
             <DataArray type="Float64" NumberOfComponents="3" Name="Strains" format="ascii">   
-1.3011568811720582e-05   0.0   -8.765400633043239e-06
-1.3011568811720582e-05   0.0   -8.765400633043239e-06
-1.3011568811720582e-05   0.0   -8.765400633043239e-06
-1.3011568811720582e-05   0.0   -8.765400633043239e-06
-8.25716895673987e-06   1.4114596980913628e-06   5.47494411275104e-09
-8.25716895673987e-06   1.4114596980913628e-06   5.47494411275104e-09
-8.25716895673987e-06   1.4114596980913628e-06   5.47494411275104e-09
-8.25716895673987e-06   1.4114596980913628e-06   5.47494411275104e-09
-8.078434054843982e-06   0.0   -8.302558785151814e-06
-8.078434054843982e-06   0.0   -8.302558785151814e-06
-8.078434054843982e-06   0.0   -8.302558785151814e-06
-8.078434054843982e-06   0.0   -8.302558785151814e-06
-1.3598135785058632e-05   1.708123953586083e-06   -1.2793027361234817e-07
-1.3598135785058632e-05   1.708123953586083e-06   -1.2793027361234817e-07
-1.3598135785058632e-05   1.708123953586083e-06   -1.2793027361234817e-07
-1.3598135785058632e-05   1.708123953586083e-06   -1.2793027361234817e-07
-1.0545001433282265e-05   3.8570153990951956e-07   -4.4230340783670134e-06
-1.0545001433282265e-05   3.8570153990951956e-07   -4.4230340783670134e-06
-1.0545001433282265e-05   3.8570153990951956e-07   -4.4230340783670134e-06
-1.0545001433282265e-05   3.8570153990951956e-07   -4.4230340783670134e-06
-1.3598135785058654e-05   0.0   -9.327433157303466e-06
-1.3598135785058654e-05   0.0   -9.327433157303466e-06
-1.3598135785058654e-05   0.0   -9.327433157303466e-06
-1.3598135785058654e-05   0.0   -9.327433157303466e-06
-8.078434054843982e-06   1.7081239535860881e-06   8.969440985393054e-07
-8.078434054843982e-06   1.7081239535860881e-06   8.969440985393054e-07
-8.078434054843982e-06   1.7081239535860881e-06   8.969440985393054e-07
-8.078434054843982e-06   1.7081239535860881e-06   8.969440985393054e-07
-8.084526561204708e-06   0.0   -8.501283916857781e-06
-8.084526561204708e-06   0.0   -8.501283916857781e-06
-8.084526561204708e-06   0.0   -8.501283916857781e-06
-8.084526561204708e-06   0.0   -8.501283916857781e-06
-1.4002413926501157e-05   1.8338924872244755e-06   2.6152619963498483e-07
-1.4002413926501157e-05   1.8338924872244755e-06   2.6152619963498483e-07
-1.4002413926501157e-05   1.8338924872244755e-06   2.6152619963498483e-07
-1.4002413926501157e-05   1.8338924872244755e-06   2.6152619963498483e-07
-1.0841331173131663e-05   6.884577003714033e-07   -4.319684183868992e-06
-1.0841331173131663e-05   6.884577003714033e-07   -4.319684183868992e-06
-1.0841331173131663e-05   6.884577003714033e-07   -4.319684183868992e-06
-1.0841331173131663e-05   6.884577003714033e-07   -4.319684183868992e-06
-1.400241392650118e-05   0.0   -9.601619409192469e-06
-1.400241392650118e-05   0.0   -9.601619409192469e-06
-1.400241392650118e-05   0.0   -9.601619409192469e-06
-1.400241392650118e-05   0.0   -9.601619409192469e-06
-8.084526561204708e-06   1.8338924872244789e-06   1.3618616919696745e-06
-8.084526561204708e-06   1.8338924872244789e-06   1.3618616919696745e-06
-8.084526561204708e-06   1.8338924872244789e-06   1.3618616919696745e-06
-8.084526561204708e-06   1.8338924872244789e-06   1.3618616919696745e-06
-8.061462743176393e-06   0.0   -8.554980204904709e-06
-8.061462743176393e-06   0.0   -8.554980204904709e-06
-8.061462743176393e-06   0.0   -8.554980204904709e-06
-8.061462743176393e-06   0.0   -8.554980204904709e-06
-1.4889903526822554e-05   2.101342691318628e-06   1.5649488197144208e-06
-1.4889903526822554e-05   2.101342691318628e-06   1.5649488197144208e-06
-1.4889903526822554e-05   2.101342691318628e-06   1.5649488197144208e-06
-1.4889903526822554e-05   2.101342691318628e-06   1.5649488197144208e-06
-1.1031938334838767e-05   8.721993369064659e-07   -4.12750715427792e-06
-1.1031938334838767e-05   8.721993369064659e-07   -4.12750715427792e-06
-1.1031938334838767e-05   8.721993369064659e-07   -4.12750715427792e-06
-1.1031938334838767e-05   8.721993369064659e-07   -4.12750715427792e-06
-8.257168956739886e-06   0.0   -7.918524814188421e-06
-8.257168956739886e-06   0.0   -7.918524814188421e-06
-8.257168956739886e-06   0.0   -7.918524814188421e-06
-8.257168956739886e-06   0.0   -7.918524814188421e-06
-3.7796602864661368e-06   5.118849063727913e-07   -1.4887941990850335e-07
-3.7796602864661368e-06   5.118849063727913e-07   -1.4887941990850335e-07
-3.7796602864661368e-06   5.118849063727913e-07   -1.4887941990850335e-07
-3.7796602864661368e-06   5.118849063727913e-07   -1.4887941990850335e-07
-3.6189569733135433e-06   0.0   -7.859375196557791e-06
-3.6189569733135433e-06   0.0   -7.859375196557791e-06
-3.6189569733135433e-06   0.0   -7.859375196557791e-06
-3.6189569733135433e-06   0.0   -7.859375196557791e-06
-8.078434054843982e-06   7.386393143233693e-07   -8.700969826010832e-07
-8.078434054843982e-06   7.386393143233693e-07   -8.700969826010832e-07
-8.078434054843982e-06   7.386393143233693e-07   -8.700969826010832e-07
-8.078434054843982e-06   7.386393143233693e-07   -8.700969826010832e-07
-5.938062965026704e-06   4.92913480255237e-08   -4.023773352517812e-06
-5.938062965026704e-06   4.92913480255237e-08   -4.023773352517812e-06
-5.938062965026704e-06   4.92913480255237e-08   -4.023773352517812e-06
-5.938062965026704e-06   4.92913480255237e-08   -4.023773352517812e-06
-8.078434054843976e-06   0.0   -8.302558785151806e-06
-8.078434054843976e-06   0.0   -8.302558785151806e-06
-8.078434054843976e-06   0.0   -8.302558785151806e-06
-8.078434054843976e-06   0.0   -8.302558785151806e-06
-3.6189569733135433e-06   7.386393143233693e-07   -4.2691339400706106e-07
-3.6189569733135433e-06   7.386393143233693e-07   -4.2691339400706106e-07
-3.6189569733135433e-06   7.386393143233693e-07   -4.2691339400706106e-07
-3.6189569733135433e-06   7.386393143233693e-07   -4.2691339400706106e-07
-3.5218785485864647e-06   0.0   -7.954580018646667e-06
-3.5218785485864647e-06   0.0   -7.954580018646667e-06
-3.5218785485864647e-06   0.0   -7.954580018646667e-06
-3.5218785485864647e-06   0.0   -7.954580018646667e-06
-8.084526561204708e-06   9.111731636851904e-07   -8.968705624940425e-07
-8.084526561204708e-06   9.111731636851904e-07   -8.968705624940425e-07
-8.084526561204708e-06   9.111731636851904e-07   -8.968705624940425e-07
-8.084526561204708e-06   9.111731636851904e-07   -8.968705624940425e-07
-5.800156301715212e-06   2.899823054209553e-07   -4.331439813351295e-06
-5.800156301715212e-06   2.899823054209553e-07   -4.331439813351295e-06
-5.800156301715212e-06   2.899823054209553e-07   -4.331439813351295e-06
-5.800156301715212e-06   2.899823054209553e-07   -4.331439813351295e-06
-8.084526561204708e-06   0.0   -8.501283916857781e-06
-8.084526561204708e-06   0.0   -8.501283916857781e-06
-8.084526561204708e-06   0.0   -8.501283916857781e-06
-8.084526561204708e-06   0.0   -8.501283916857781e-06
-3.5218785485864647e-06   9.111731636851904e-07   -3.5016666428292916e-07
-3.5218785485864647e-06   9.111731636851904e-07   -3.5016666428292916e-07
-3.5218785485864647e-06   9.111731636851904e-07   -3.5016666428292916e-07
-3.5218785485864647e-06   9.111731636851904e-07   -3.5016666428292916e-07
-3.430723927042963e-06   0.0   -7.916451089396429e-06
-3.430723927042963e-06   0.0   -7.916451089396429e-06
-3.430723927042963e-06   0.0   -7.916451089396429e-06
-3.430723927042963e-06   0.0   -7.916451089396429e-06
-8.061462743176372e-06   1.0642151925137873e-06   -8.370821780156561e-07
-8.061462743176372e-06   1.0642151925137873e-06   -8.370821780156561e-07
-8.061462743176372e-06   1.0642151925137873e-06   -8.370821780156561e-07
-8.061462743176372e-06   1.0642151925137873e-06   -8.370821780156561e-07
-5.757625244123834e-06   4.873606895511226e-07   -4.330698641325651e-06
-5.757625244123834e-06   4.873606895511226e-07   -4.330698641325651e-06
-5.757625244123834e-06   4.873606895511226e-07   -4.330698641325651e-06
-5.757625244123834e-06   4.873606895511226e-07   -4.330698641325651e-06
-3.7796602864661435e-06   0.0   -7.611393870364745e-06
-3.7796602864661435e-06   0.0   -7.611393870364745e-06
-3.7796602864661435e-06   0.0   -7.611393870364745e-06
-3.7796602864661435e-06   0.0   -7.611393870364745e-06
4.364803614628889e-07   -6.993256020091316e-08   -6.264523266035646e-07
4.364803614628889e-07   -6.993256020091316e-08   -6.264523266035646e-07
4.364803614628889e-07   -6.993256020091316e-08   -6.264523266035646e-07
4.364803614628889e-07   -6.993256020091316e-08   -6.264523266035646e-07
5.46793819326015e-07   0.0   -7.779658742560528e-06
5.46793819326015e-07   0.0   -7.779658742560528e-06
5.46793819326015e-07   0.0   -7.779658742560528e-06
5.46793819326015e-07   0.0   -7.779658742560528e-06
-3.6189569733135374e-06   1.3286075666206083e-07   -9.164572088251899e-07
-3.6189569733135374e-06   1.3286075666206083e-07   -9.164572088251899e-07
-3.6189569733135374e-06   1.3286075666206083e-07   -9.164572088251899e-07
-3.6189569733135374e-06   1.3286075666206083e-07   -9.164572088251899e-07
-1.6164332335700577e-06   -1.4022072682984152e-07   -4.090147884969166e-06
-1.6164332335700577e-06   -1.4022072682984152e-07   -4.090147884969166e-06
-1.6164332335700577e-06   -1.4022072682984152e-07   -4.090147884969166e-06
-1.6164332335700577e-06   -1.4022072682984152e-07   -4.090147884969166e-06
-3.6189569733135433e-06   0.0   -7.859375196557791e-06
-3.6189569733135433e-06   0.0   -7.859375196557791e-06
-3.6189569733135433e-06   0.0   -7.859375196557791e-06
-3.6189569733135433e-06   0.0   -7.859375196557791e-06
5.467938193260159e-07   1.3286075666206083e-07   -8.36740754827954e-07
5.467938193260159e-07   1.3286075666206083e-07   -8.36740754827954e-07
5.467938193260159e-07   1.3286075666206083e-07   -8.36740754827954e-07
5.467938193260159e-07   1.3286075666206083e-07   -8.36740754827954e-07
6.360661970020533e-07   0.0   -7.767247078738105e-06
6.360661970020533e-07   0.0   -7.767247078738105e-06
6.360661970020533e-07   0.0   -7.767247078738105e-06
6.360661970020533e-07   0.0   -7.767247078738105e-06
-3.5218785485864524e-06   3.122215665142488e-07   -1.0246721093324673e-06
-3.5218785485864524e-06   3.122215665142488e-07   -1.0246721093324673e-06
-3.5218785485864524e-06   3.122215665142488e-07   -1.0246721093324673e-06
-3.5218785485864524e-06   3.122215665142488e-07   -1.0246721093324673e-06
-1.491445388155742e-06   7.677343151639419e-08   -4.26745849571828e-06
-1.491445388155742e-06   7.677343151639419e-08   -4.26745849571828e-06
-1.491445388155742e-06   7.677343151639419e-08   -4.26745849571828e-06
-1.491445388155742e-06   7.677343151639419e-08   -4.26745849571828e-06
-3.5218785485864647e-06   0.0   -7.954580018646667e-06
-3.5218785485864647e-06   0.0   -7.954580018646667e-06
-3.5218785485864647e-06   0.0   -7.954580018646667e-06
-3.5218785485864647e-06   0.0   -7.954580018646667e-06
6.360661970020544e-07   3.122215665142488e-07   -8.373391694239208e-07
6.360661970020544e-07   3.122215665142488e-07   -8.373391694239208e-07
6.360661970020544e-07   3.122215665142488e-07   -8.373391694239208e-07
6.360661970020544e-07   3.122215665142488e-07   -8.373391694239208e-07
7.506422246991761e-07   0.0   -7.60506623205712e-06
7.506422246991761e-07   0.0   -7.60506623205712e-06
7.506422246991761e-07   0.0   -7.60506623205712e-06
7.506422246991761e-07   0.0   -7.60506623205712e-06
-3.430723927042954e-06   5.18974762232166e-07   -9.475075031595281e-07
-3.430723927042954e-06   5.18974762232166e-07   -9.475075031595281e-07
-3.430723927042954e-06   5.18974762232166e-07   -9.475075031595281e-07
-3.430723927042954e-06   5.18974762232166e-07   -9.475075031595281e-07
-1.3856181619436411e-06   2.9126148882461127e-07   -4.219389147613855e-06
-1.3856181619436411e-06   2.9126148882461127e-07   -4.219389147613855e-06
-1.3856181619436411e-06   2.9126148882461127e-07   -4.219389147613855e-06
-1.3856181619436411e-06   2.9126148882461127e-07   -4.219389147613855e-06
4.364803614628896e-07   0.0   -7.653353406485292e-06
4.364803614628896e-07   0.0   -7.653353406485292e-06
4.364803614628896e-07   0.0   -7.653353406485292e-06
4.364803614628896e-07   0.0   -7.653353406485292e-06
5.027236771108465e-06   -5.897314647185485e-07   -3.5593160257379317e-07
5.027236771108465e-06   -5.897314647185485e-07   -3.5593160257379317e-07
5.027236771108465e-06   -5.897314647185485e-07   -3.5593160257379317e-07
5.027236771108465e-06   -5.897314647185485e-07   -3.5593160257379317e-07
5.057065175192201e-06   0.0   -8.043583758752486e-06
5.057065175192201e-06   0.0   -8.043583758752486e-06
5.057065175192201e-06   0.0   -8.043583758752486e-06
5.057065175192201e-06   0.0   -8.043583758752486e-06
5.467938193260169e-07   -4.398750269865499e-07   -2.6253981611691547e-07
5.467938193260169e-07   -4.398750269865499e-07   -2.6253981611691547e-07
5.467938193260169e-07   -4.398750269865499e-07   -2.6253981611691547e-07
5.467938193260169e-07   -4.398750269865499e-07   -2.6253981611691547e-07
2.746772768327545e-06   -3.2519196022266075e-07   -3.99798123784446e-06
2.746772768327545e-06   -3.2519196022266075e-07   -3.99798123784446e-06
2.746772768327545e-06   -3.2519196022266075e-07   -3.99798123784446e-06
2.746772768327545e-06   -3.2519196022266075e-07   -3.99798123784446e-06
5.467938193260169e-07   0.0   -7.779658742560555e-06
5.467938193260169e-07   0.0   -7.779658742560555e-06
5.467938193260169e-07   0.0   -7.779658742560555e-06
5.467938193260169e-07   0.0   -7.779658742560555e-06
5.057065175192201e-06   -4.398750269865499e-07   -5.264648323088454e-07
5.057065175192201e-06   -4.398750269865499e-07   -5.264648323088454e-07
5.057065175192201e-06   -4.398750269865499e-07   -5.264648323088454e-07
5.057065175192201e-06   -4.398750269865499e-07   -5.264648323088454e-07
5.053408354963901e-06   0.0   -7.928874072279463e-06
5.053408354963901e-06   0.0   -7.928874072279463e-06
5.053408354963901e-06   0.0   -7.928874072279463e-06
5.053408354963901e-06   0.0   -7.928874072279463e-06
6.360661970020544e-07   -2.693783225689074e-07   -4.050101488017078e-07
6.360661970020544e-07   -2.693783225689074e-07   -4.050101488017078e-07
6.360661970020544e-07   -2.693783225689074e-07   -4.050101488017078e-07
6.360661970020544e-07   -2.693783225689074e-07   -4.050101488017078e-07
2.800101087144959e-06   -1.2434610809908908e-07   -4.098754294388437e-06
2.800101087144959e-06   -1.2434610809908908e-07   -4.098754294388437e-06
2.800101087144959e-06   -1.2434610809908908e-07   -4.098754294388437e-06
2.800101087144959e-06   -1.2434610809908908e-07   -4.098754294388437e-06
6.360661970020539e-07   0.0   -7.76724707873811e-06
6.360661970020539e-07   0.0   -7.76724707873811e-06
6.360661970020539e-07   0.0   -7.76724707873811e-06
6.360661970020539e-07   0.0   -7.76724707873811e-06
5.053408354963901e-06   -2.693783225689074e-07   -5.666371423430518e-07
5.053408354963901e-06   -2.693783225689074e-07   -5.666371423430518e-07
5.053408354963901e-06   -2.693783225689074e-07   -5.666371423430518e-07
5.053408354963901e-06   -2.693783225689074e-07   -5.666371423430518e-07
5.168575062588581e-06   0.0   -7.629885727193974e-06
5.168575062588581e-06   0.0   -7.629885727193974e-06
5.168575062588581e-06   0.0   -7.629885727193974e-06
5.168575062588581e-06   0.0   -7.629885727193974e-06
7.506422246991774e-07   -4.136582522806802e-08   -2.418448355747964e-07
7.506422246991774e-07   -4.136582522806802e-08   -2.418448355747964e-07
7.506422246991774e-07   -4.136582522806802e-08   -2.418448355747964e-07
7.506422246991774e-07   -4.136582522806802e-08   -2.418448355747964e-07
2.9023206297953156e-06   1.1446779295345287e-07   -3.921475681643935e-06
2.9023206297953156e-06   1.1446779295345287e-07   -3.921475681643935e-06
2.9023206297953156e-06   1.1446779295345287e-07   -3.921475681643935e-06
2.9023206297953156e-06   1.1446779295345287e-07   -3.921475681643935e-06
5.027236771108465e-06   0.0   -8.007192285316423e-06
5.027236771108465e-06   0.0   -8.007192285316423e-06
5.027236771108465e-06   0.0   -8.007192285316423e-06
5.027236771108465e-06   0.0   -8.007192285316423e-06
1.1460153835278777e-05   -1.5090194608070692e-06   1.8089244784832516e-06
1.1460153835278777e-05   -1.5090194608070692e-06   1.8089244784832516e-06
1.1460153835278777e-05   -1.5090194608070692e-06   1.8089244784832516e-06
1.1460153835278777e-05   -1.5090194608070692e-06   1.8089244784832516e-06
1.0790067338670882e-05   0.0   -8.807325162907908e-06
1.0790067338670882e-05   0.0   -8.807325162907908e-06
1.0790067338670882e-05   0.0   -8.807325162907908e-06
1.0790067338670882e-05   0.0   -8.807325162907908e-06
5.057065175192201e-06   -1.2729023402590385e-06   1.5114198470453147e-06
5.057065175192201e-06   -1.2729023402590385e-06   1.5114198470453147e-06
5.057065175192201e-06   -1.2729023402590385e-06   1.5114198470453147e-06
5.057065175192201e-06   -1.2729023402590385e-06   1.5114198470453147e-06
7.908652054889673e-06   -6.667773979929058e-07   -3.604899917810147e-06
7.908652054889673e-06   -6.667773979929058e-07   -3.604899917810147e-06
7.908652054889673e-06   -6.667773979929058e-07   -3.604899917810147e-06
7.908652054889673e-06   -6.667773979929058e-07   -3.604899917810147e-06
5.057065175192197e-06   0.0   -8.043583758752479e-06
5.057065175192197e-06   0.0   -8.043583758752479e-06
5.057065175192197e-06   0.0   -8.043583758752479e-06
5.057065175192197e-06   0.0   -8.043583758752479e-06
1.0790067338670843e-05   -1.2729023402590334e-06   7.476784428898886e-07
1.0790067338670843e-05   -1.2729023402590334e-06   7.476784428898886e-07
1.0790067338670843e-05   -1.2729023402590334e-06   7.476784428898886e-07
1.0790067338670843e-05   -1.2729023402590334e-06   7.476784428898886e-07
1.0489194918620926e-05   0.0   -8.624413389308815e-06
1.0489194918620926e-05   0.0   -8.624413389308815e-06
1.0489194918620926e-05   0.0   -8.624413389308815e-06
1.0489194918620926e-05   0.0   -8.624413389308815e-06
5.053408354963901e-06   -1.159232195048921e-06   1.1307702004822435e-06
5.053408354963901e-06   -1.159232195048921e-06   1.1307702004822435e-06
5.053408354963901e-06   -1.159232195048921e-06   1.1307702004822435e-06
5.053408354963901e-06   -1.159232195048921e-06   1.1307702004822435e-06
7.773130046906559e-06   -4.840246921302747e-07   -3.8072237878400396e-06
7.773130046906559e-06   -4.840246921302747e-07   -3.8072237878400396e-06
7.773130046906559e-06   -4.840246921302747e-07   -3.8072237878400396e-06
7.773130046906559e-06   -4.840246921302747e-07   -3.8072237878400396e-06
5.053408354963901e-06   0.0   -7.928874072279463e-06
5.053408354963901e-06   0.0   -7.928874072279463e-06
5.053408354963901e-06   0.0   -7.928874072279463e-06
5.053408354963901e-06   0.0   -7.928874072279463e-06
1.048919491862089e-05   -1.1592321950489177e-06   4.3523088345289156e-07
1.048919491862089e-05   -1.1592321950489177e-06   4.3523088345289156e-07
1.048919491862089e-05   -1.1592321950489177e-06   4.3523088345289156e-07
1.048919491862089e-05   -1.1592321950489177e-06   4.3523088345289156e-07
1.0028698233516618e-05   0.0   -8.162694671000804e-06
1.0028698233516618e-05   0.0   -8.162694671000804e-06
1.0028698233516618e-05   0.0   -8.162694671000804e-06
1.0028698233516618e-05   0.0   -8.162694671000804e-06
5.168575062588581e-06   -8.88014906344741e-07   4.7031955768611625e-07
5.168575062588581e-06   -8.88014906344741e-07   4.7031955768611625e-07
5.168575062588581e-06   -8.88014906344741e-07   4.7031955768611625e-07
5.168575062588581e-06   -8.88014906344741e-07   4.7031955768611625e-07
7.541053294240268e-06   -1.9485049893446478e-07   -3.8997094728461924e-06
7.541053294240268e-06   -1.9485049893446478e-07   -3.8997094728461924e-06
7.541053294240268e-06   -1.9485049893446478e-07   -3.8997094728461924e-06
7.541053294240268e-06   -1.9485049893446478e-07   -3.8997094728461924e-06
-1.1122161246849169e-05   1.4114596980913594e-06   -7.447797858020362e-06
-1.1122161246849169e-05   1.4114596980913594e-06   -7.447797858020362e-06
-1.1122161246849169e-05   1.4114596980913594e-06   -7.447797858020362e-06
-1.1122161246849169e-05   1.4114596980913594e-06   -7.447797858020362e-06