<?xml version="1.0"?> 
<VTKFile type="UnstructuredGrid"> 
   <UnstructuredGrid> 
      <Piece NumberOfPoints="6000"  NumberOfCells="1500">  
          <Points>  
             <DataArray type="Float64" NumberOfComponents="3" format="ascii">   
-500.0   0.0   0.0
-450.0   0.0   0.0
-500.0   30.0   0.0
-500.0   0.0   16.666666666666668
-450.0   0.0   0.0
-450.0   30.0   0.0
-500.0   30.0   0.0
-450.0   30.0   16.666666666666668
-500.0   0.0   16.666666666666668
-500.0   30.0   16.666666666666668
-450.0   30.0   16.666666666666668
-500.0   30.0   0.0
-500.0   0.0   16.666666666666668
-450.0   30.0   16.666666666666668
-450.0   0.0   16.666666666666668
-450.0   0.0   0.0
-500.0   0.0   16.666666666666668
-450.0   30.0   16.666666666666668
-450.0   0.0   0.0
-500.0   30.0   0.0
-500.0   0.0   16.666666666666668
-450.0   0.0   16.666666666666668
-500.0   30.0   16.666666666666668
-500.0   0.0   33.333333333333336
-450.0   0.0   16.666666666666668
-450.0   30.0   16.666666666666668
-500.0   30.0   16.666666666666668
-450.0   30.0   33.333333333333336
-500.0   0.0   33.333333333333336
-500.0   30.0   33.333333333333336
-450.0   30.0   33.333333333333336
-500.0   30.0   16.666666666666668
-500.0   0.0   33.333333333333336
-450.0   30.0   33.333333333333336
-450.0   0.0   33.333333333333336
-450.0   0.0   16.666666666666668
-500.0   0.0   33.333333333333336
-450.0   30.0   33.333333333333336
-450.0   0.0   16.666666666666668
-500.0   30.0   16.666666666666668
-500.0   0.0   33.333333333333336
-450.0   0.0   33.333333333333336
-500.0   30.0   33.333333333333336
-500.0   0.0   50.0
-450.0   0.0   33.333333333333336
-450.0   30.0   33.333333333333336
-500.0   30.0   33.333333333333336
-450.0   30.0   50.0
-500.0   0.0   50.0
-500.0   30.0   50.0
-450.0   30.0   50.0
-500.0   30.0   33.333333333333336
-500.0   0.0   50.0
-450.0   30.0   50.0
-450.0   0.0   50.0
-450.0   0.0   33.333333333333336
-500.0   0.0   50.0
-450.0   30.0   50.0
-450.0   0.0   33.333333333333336
-500.0   30.0   33.333333333333336
-500.0   30.0   0.0
-450.0   30.0   0.0
-500.0   60.0   0.0
-500.0   30.0   16.666666666666668
-450.0   30.0   0.0
-450.0   60.0   0.0
-500.0   60.0   0.0
-450.0   60.0   16.666666666666668
-500.0   30.0   16.666666666666668
-500.0   60.0   16.666666666666668
-450.0   60.0   16.666666666666668
-500.0   60.0   0.0
-500.0   30.0   16.666666666666668
-450.0   60.0   16.666666666666668
-450.0   30.0   16.666666666666668
-450.0   30.0   0.0
-500.0   30.0   16.666666666666668
-450.0   60.0   16.666666666666668
-450.0   30.0   0.0
-500.0   60.0   0.0
-500.0   30.0   16.666666666666668
-450.0   30.0   16.666666666666668
-500.0   60.0   16.666666666666668
-500.0   30.0   33.333333333333336
-450.0   30.0   16.666666666666668
-450.0   60.0   16.666666666666668
-500.0   60.0   16.666666666666668
-450.0   60.0   33.333333333333336
-500.0   30.0   33.333333333333336
-500.0   60.0   33.333333333333336
-450.0   60.0   33.333333333333336
-500.0   60.0   16.666666666666668
-500.0   30.0   33.333333333333336
-450.0   60.0   33.333333333333336
-450.0   30.0   33.333333333333336
-450.0   30.0   16.666666666666668
-500.0   30.0   33.333333333333336
-450.0   60.0   33.333333333333336
-450.0   30.0   16.666666666666668
-500.0   60.0   16.666666666666668
-500.0   30.0   33.333333333333336
-450.0   30.0   33.333333333333336
-500.0   60.0   33.333333333333336
-500.0   30.0   50.0
-450.0   30.0   33.333333333333336
-450.0   60.0   33.333333333333336
-500.0   60.0   33.333333333333336
-450.0   60.0   50.0
-500.0   30.0   50.0
-500.0   60.0   50.0
-450.0   60.0   50.0
-500.0   60.0   33.333333333333336
-500.0   30.0   50.0
-450.0   60.0   50.0
-450.0   30.0   50.0
-450.0   30.0   33.333333333333336
-500.0   30.0   50.0
-450.0   60.0   50.0
-450.0   30.0   33.333333333333336
-500.0   60.0   33.333333333333336
-500.0   60.0   0.0
-450.0   60.0   0.0
-500.0   90.0   0.0
-500.0   60.0   16.666666666666668
-450.0   60.0   0.0
-450.0   90.0   0.0
-500.0   90.0   0.0
-450.0   90.0   16.666666666666668
-500.0   60.0   16.666666666666668
-500.0   90.0   16.666666666666668
-450.0   90.0   16.666666666666668
-500.0   90.0   0.0
-500.0   60.0   16.666666666666668
-450.0   90.0   16.666666666666668
-450.0   60.0   16.666666666666668
-450.0   60.0   0.0
-500.0   60.0   16.666666666666668
-450.0   90.0   16.666666666666668
-450.0   60.0   0.0
-500.0   90.0   0.0
-500.0   60.0   16.666666666666668
-450.0   60.0   16.666666666666668
-500.0   90.0   16.666666666666668
-500.0   60.0   33.333333333333336
-450.0   60.0   16.666666666666668
-450.0   90.0   16.666666666666668
-500.0   90.0   16.666666666666668
-450.0   90.0   33.333333333333336
-500.0   60.0   33.333333333333336
-500.0   90.0   33.333333333333336
-450.0   90.0   33.333333333333336
-500.0   90.0   16.666666666666668
-500.0   60.0   33.333333333333336
-450.0   90.0   33.333333333333336
-450.0   60.0   33.333333333333336
-450.0   60.0   16.666666666666668
-500.0   60.0   33.333333333333336
-450.0   90.0   33.333333333333336
-450.0   60.0   16.666666666666668
-500.0   90.0   16.666666666666668
-500.0   60.0   33.333333333333336
-450.0   60.0   33.333333333333336
-500.0   90.0   33.333333333333336
-500.0   60.0   50.0
-450.0   60.0   33.333333333333336
-450.0   90.0   33.333333333333336
-500.0   90.0   33.333333333333336
-450.0   90.0   50.0
-500.0   60.0   50.0
-500.0   90.0   50.0
-450.0   90.0   50.0
-500.0   90.0   33.333333333333336
-500.0   60.0   50.0
-450.0   90.0   50.0
-450.0   60.0   50.0
-450.0   60.0   33.333333333333336
-500.0   60.0   50.0
-450.0   90.0   50.0
-450.0   60.0   33.333333333333336
-500.0   90.0   33.333333333333336
-500.0   90.0   0.0
-450.0   90.0   0.0
-500.0   120.0   0.0
-500.0   90.0   16.666666666666668
-450.0   90.0   0.0
-450.0   120.0   0.0
-500.0   120.0   0.0
-450.0   120.0   16.666666666666668
-500.0   90.0   16.666666666666668
-500.0   120.0   16.666666666666668
-450.0   120.0   16.666666666666668
-500.0   120.0   0.0
-500.0   90.0   16.666666666666668
-450.0   120.0   16.666666666666668
-450.0   90.0   16.666666666666668
-450.0   90.0   0.0
-500.0   90.0   16.666666666666668
-450.0   120.0   16.666666666666668
-450.0   90.0   0.0
-500.0   120.0   0.0
-500.0   90.0   16.666666666666668
-450.0   90.0   16.666666666666668
-500.0   120.0   16.666666666666668
-500.0   90.0   33.333333333333336
-450.0   90.0   16.666666666666668
-450.0   120.0   16.666666666666668
-500.0   120.0   16.666666666666668
-450.0   120.0   33.333333333333336
-500.0   90.0   33.333333333333336
-500.0   120.0   33.333333333333336
-450.0   120.0   33.333333333333336
-500.0   120.0   16.666666666666668
-500.0   90.0   33.333333333333336
-450.0   120.0   33.333333333333336
-450.0   90.0   33.333333333333336
-450.0   90.0   16.666666666666668
-500.0   90.0   33.333333333333336
-450.0   120.0   33.333333333333336
-450.0   90.0   16.666666666666668
-500.0   120.0   16.666666666666668
-500.0   90.0   33.333333333333336
-450.0   90.0   33.333333333333336
-500.0   120.0   33.333333333333336
-500.0   90.0   50.0
-450.0   90.0   33.333333333333336
-450.0   120.0   33.333333333333336
-500.0   120.0   33.333333333333336
-450.0   120.0   50.0
-500.0   90.0   50.0
-500.0   120.0   50.0
-450.0   120.0   50.0
-500.0   120.0   33.333333333333336
-500.0   90.0   50.0
-450.0   120.0   50.0
-450.0   90.0   50.0
-450.0   90.0   33.333333333333336
-500.0   90.0   50.0
-450.0   120.0   50.0
-450.0   90.0   33.333333333333336
-500.0   120.0   33.333333333333336
-500.0   120.0   0.0
-450.0   120.0   0.0
-500.0   150.0   0.0
-500.0   120.0   16.666666666666668
-450.0   120.0   0.0
-450.0   150.0   0.0
-500.0   150.0   0.0
-450.0   150.0   16.666666666666668
-500.0   120.0   16.666666666666668
-500.0   150.0   16.666666666666668
-450.0   150.0   16.666666666666668
-500.0   150.0   0.0
-500.0   120.0   16.666666666666668
-450.0   150.0   16.666666666666668
-450.0   120.0   16.666666666666668
-450.0   120.0   0.0
-500.0   120.0   16.666666666666668
-450.0   150.0   16.666666666666668
-450.0   120.0   0.0
-500.0   150.0   0.0
-500.0   120.0   16.666666666666668
-450.0   120.0   16.666666666666668
-500.0   150.0   16.666666666666668
-500.0   120.0   33.333333333333336
-450.0   120.0   16.666666666666668
-450.0   150.0   16.666666666666668
-500.0   150.0   16.666666666666668
-450.0   150.0   33.333333333333336
-500.0   120.0   33.333333333333336
-500.0   150.0   33.333333333333336
-450.0   150.0   33.333333333333336
-500.0   150.0   16.666666666666668
-500.0   120.0   33.333333333333336
-450.0   150.0   33.333333333333336
-450.0   120.0   33.333333333333336
-450.0   120.0   16.666666666666668
-500.0   120.0   33.333333333333336
-450.0   150.0   33.333333333333336
-450.0   120.0   16.666666666666668
-500.0   150.0   16.666666666666668
-500.0   120.0   33.333333333333336
-450.0   120.0   33.333333333333336
-500.0   150.0   33.333333333333336
-500.0   120.0   50.0
-450.0   120.0   33.333333333333336
-450.0   150.0   33.333333333333336
-500.0   150.0   33.333333333333336
-450.0   150.0   50.0
-500.0   120.0   50.0
-500.0   150.0   50.0
-450.0   150.0   50.0
-500.0   150.0   33.333333333333336
-500.0   120.0   50.0
-450.0   150.0   50.0
-450.0   120.0   50.0
-450.0   120.0   33.333333333333336
-500.0   120.0   50.0
-450.0   150.0   50.0
-450.0   120.0   33.333333333333336
-500.0   150.0   33.333333333333336
-450.0   0.0   0.0
-400.0   0.0   0.0
-450.0   30.0   0.0
-450.0   0.0   16.666666666666668
-400.0   0.0   0.0
-400.0   30.0   0.0
-450.0   30.0   0.0
-400.0   30.0   16.666666666666668
-450.0   0.0   16.666666666666668
-450.0   30.0   16.666666666666668
-400.0   30.0   16.666666666666668
-450.0   30.0   0.0
-450.0   0.0   16.666666666666668
-400.0   30.0   16.666666666666668
-400.0   0.0   16.666666666666668
-400.0   0.0   0.0
-450.0   0.0   16.666666666666668
-400.0   30.0   16.666666666666668
-400.0   0.0   0.0
-450.0   30.0   0.0
-450.0   0.0   16.666666666666668
-400.0   0.0   16.666666666666668
-450.0   30.0   16.666666666666668
[...]
          <PointData>  
             <DataArray type="Float64" NumberOfComponents="3" Name="Strains" format="ascii">   
-2.552875863857108e-05   0.0   -1.6945770546444794e-05
-2.552875863857108e-05   0.0   -1.6945770546444794e-05
-2.552875863857108e-05   0.0   -1.6945770546444794e-05
-2.552875863857108e-05   0.0   -1.6945770546444794e-05
-1.6225530274966157e-05   2.8027264975200454e-06   2.4124595807539564e-07
-1.6225530274966157e-05   2.8027264975200454e-06   2.4124595807539564e-07
-1.6225530274966157e-05   2.8027264975200454e-06   2.4124595807539564e-07
-1.6225530274966157e-05   2.8027264975200454e-06   2.4124595807539564e-07
-1.5891603429221644e-05   0.0   -1.6018646170483414e-05
-1.5891603429221644e-05   0.0   -1.6018646170483414e-05
-1.5891603429221644e-05   0.0   -1.6018646170483414e-05
-1.5891603429221644e-05   0.0   -1.6018646170483414e-05
-2.670093080083059e-05   3.3755191901124323e-06   -2.8412065202570948e-08
-2.670093080083059e-05   3.3755191901124323e-06   -2.8412065202570948e-08
-2.670093080083059e-05   3.3755191901124323e-06   -2.8412065202570948e-08
-2.670093080083059e-05   3.3755191901124323e-06   -2.8412065202570948e-08
-2.0710181033896326e-05   7.726036466344826e-07   -8.451245684006221e-06
-2.0710181033896326e-05   7.726036466344826e-07   -8.451245684006221e-06
-2.0710181033896326e-05   7.726036466344826e-07   -8.451245684006221e-06
-2.0710181033896326e-05   7.726036466344826e-07   -8.451245684006221e-06
-2.6700930800830633e-05   0.0   -1.8043957684550877e-05
-2.6700930800830633e-05   0.0   -1.8043957684550877e-05
-2.6700930800830633e-05   0.0   -1.8043957684550877e-05
-2.6700930800830633e-05   0.0   -1.8043957684550877e-05
-1.5891603429221644e-05   3.375519190112439e-06   1.996899448864895e-06
-1.5891603429221644e-05   3.375519190112439e-06   1.996899448864895e-06
-1.5891603429221644e-05   3.375519190112439e-06   1.996899448864895e-06
-1.5891603429221644e-05   3.375519190112439e-06   1.996899448864895e-06
-1.5922321811396447e-05   0.0   -1.6406931503018016e-05
-1.5922321811396447e-05   0.0   -1.6406931503018016e-05
-1.5922321811396447e-05   0.0   -1.6406931503018016e-05
-1.5922321811396447e-05   0.0   -1.6406931503018016e-05
-2.7517663368397568e-05   3.619657017501548e-06   7.468435481496625e-07
-2.7517663368397568e-05   3.619657017501548e-06   7.468435481496625e-07
-2.7517663368397568e-05   3.619657017501548e-06   7.468435481496625e-07
-2.7517663368397568e-05   3.619657017501548e-06   7.468435481496625e-07
-2.1311626306113505e-05   1.3641884846107173e-06   -8.243270435922603e-06
-2.1311626306113505e-05   1.3641884846107173e-06   -8.243270435922603e-06
-2.1311626306113505e-05   1.3641884846107173e-06   -8.243270435922603e-06
-2.1311626306113505e-05   1.3641884846107173e-06   -8.243270435922603e-06
-2.7517663368397615e-05   0.0   -1.857872571351895e-05
-2.7517663368397615e-05   0.0   -1.857872571351895e-05
-2.7517663368397615e-05   0.0   -1.857872571351895e-05
-2.7517663368397615e-05   0.0   -1.857872571351895e-05
-1.5922321811396447e-05   3.619657017501555e-06   2.9186377586505927e-06
-1.5922321811396447e-05   3.619657017501555e-06   2.9186377586505927e-06
-1.5922321811396447e-05   3.619657017501555e-06   2.9186377586505927e-06
-1.5922321811396447e-05   3.619657017501555e-06   2.9186377586505927e-06
-1.589805945659096e-05   0.0   -1.6508928572902064e-05
-1.589805945659096e-05   0.0   -1.6508928572902064e-05
-1.589805945659096e-05   0.0   -1.6508928572902064e-05
-1.589805945659096e-05   0.0   -1.6508928572902064e-05
-2.9291121793443072e-05   4.133826614414893e-06   3.3325460198692667e-06
-2.9291121793443072e-05   4.133826614414893e-06   3.3325460198692667e-06
-2.9291121793443072e-05   4.133826614414893e-06   3.3325460198692667e-06
-2.9291121793443072e-05   4.133826614414893e-06   3.3325460198692667e-06
-2.170786141249425e-05   1.7248309505140692e-06   -7.860823883371603e-06
-2.170786141249425e-05   1.7248309505140692e-06   -7.860823883371603e-06
-2.170786141249425e-05   1.7248309505140692e-06   -7.860823883371603e-06
-2.170786141249425e-05   1.7248309505140692e-06   -7.860823883371603e-06
-1.6225530274966188e-05   0.0   -1.5264134647932765e-05
-1.6225530274966188e-05   0.0   -1.5264134647932765e-05
-1.6225530274966188e-05   0.0   -1.5264134647932765e-05
-1.6225530274966188e-05   0.0   -1.5264134647932765e-05
-7.405498406541005e-06   1.0230348251085767e-06   4.973936117433937e-08
-7.405498406541005e-06   1.0230348251085767e-06   4.973936117433937e-08
-7.405498406541005e-06   1.0230348251085767e-06   4.973936117433937e-08
-7.405498406541005e-06   1.0230348251085767e-06   4.973936117433937e-08
-7.108762416088724e-06   0.0   -1.5139740745716815e-05
-7.108762416088724e-06   0.0   -1.5139740745716815e-05
-7.108762416088724e-06   0.0   -1.5139740745716815e-05
-7.108762416088724e-06   0.0   -1.5139740745716815e-05
-1.5891603429221644e-05   1.4648423746109984e-06   -1.380577815261882e-06
-1.5891603429221644e-05   1.4648423746109984e-06   -1.380577815261882e-06
-1.5891603429221644e-05   1.4648423746109984e-06   -1.380577815261882e-06
-1.5891603429221644e-05   1.4648423746109984e-06   -1.380577815261882e-06
-1.1667146345527434e-05   1.0366158517996088e-07   -7.60463114776022e-06
-1.1667146345527434e-05   1.0366158517996088e-07   -7.60463114776022e-06
-1.1667146345527434e-05   1.0366158517996088e-07   -7.60463114776022e-06
-1.1667146345527434e-05   1.0366158517996088e-07   -7.60463114776022e-06
-1.589160342922163e-05   0.0   -1.60186461704834e-05
-1.589160342922163e-05   0.0   -1.60186461704834e-05
-1.589160342922163e-05   0.0   -1.60186461704834e-05
-1.589160342922163e-05   0.0   -1.60186461704834e-05
-7.108762416088724e-06   1.4648423746109984e-06   -5.016723904952828e-07
-7.108762416088724e-06   1.4648423746109984e-06   -5.016723904952828e-07
-7.108762416088724e-06   1.4648423746109984e-06   -5.016723904952828e-07
-7.108762416088724e-06   1.4648423746109984e-06   -5.016723904952828e-07
-6.9363431323878e-06   0.0   -1.532686969317084e-05
-6.9363431323878e-06   0.0   -1.532686969317084e-05
-6.9363431323878e-06   0.0   -1.532686969317084e-05
-6.9363431323878e-06   0.0   -1.532686969317084e-05
-1.5922321811396447e-05   1.8001030164119594e-06   -1.4303003713369424e-06
-1.5922321811396447e-05   1.8001030164119594e-06   -1.4303003713369424e-06
-1.5922321811396447e-05   1.8001030164119594e-06   -1.4303003713369424e-06
-1.5922321811396447e-05   1.8001030164119594e-06   -1.4303003713369424e-06
-1.1413973280804699e-05   5.764803977604775e-07   -8.210041017798898e-06
-1.1413973280804699e-05   5.764803977604775e-07   -8.210041017798898e-06
-1.1413973280804699e-05   5.764803977604775e-07   -8.210041017798898e-06
-1.1413973280804699e-05   5.764803977604775e-07   -8.210041017798898e-06
-1.5922321811396447e-05   0.0   -1.6406931503018016e-05
-1.5922321811396447e-05   0.0   -1.6406931503018016e-05
-1.5922321811396447e-05   0.0   -1.6406931503018016e-05
-1.5922321811396447e-05   0.0   -1.6406931503018016e-05
-6.9363431323878e-06   1.8001030164119594e-06   -3.502385614897664e-07
-6.9363431323878e-06   1.8001030164119594e-06   -3.502385614897664e-07
-6.9363431323878e-06   1.8001030164119594e-06   -3.502385614897664e-07
-6.9363431323878e-06   1.8001030164119594e-06   -3.502385614897664e-07
-6.777012834806936e-06   0.0   -1.5250144078619547e-05
-6.777012834806936e-06   0.0   -1.5250144078619547e-05
-6.777012834806936e-06   0.0   -1.5250144078619547e-05
-6.777012834806936e-06   0.0   -1.5250144078619547e-05
-1.589805945659092e-05   2.0979741571375016e-06   -1.3071842032620215e-06
-1.589805945659092e-05   2.0979741571375016e-06   -1.3071842032620215e-06
-1.589805945659092e-05   2.0979741571375016e-06   -1.3071842032620215e-06
-1.589805945659092e-05   2.0979741571375016e-06   -1.3071842032620215e-06
-1.1349667323101687e-05   9.639895203320476e-07   -8.20744697699419e-06
-1.1349667323101687e-05   9.639895203320476e-07   -8.20744697699419e-06
-1.1349667323101687e-05   9.639895203320476e-07   -8.20744697699419e-06
-1.1349667323101687e-05   9.639895203320476e-07   -8.20744697699419e-06
-7.405498406541018e-06   0.0   -1.465031375286762e-05
-7.405498406541018e-06   0.0   -1.465031375286762e-05
-7.405498406541018e-06   0.0   -1.465031375286762e-05
-7.405498406541018e-06   0.0   -1.465031375286762e-05
9.157255546274815e-07   -1.347500497905489e-07   -8.624571807944355e-07
9.157255546274815e-07   -1.347500497905489e-07   -8.624571807944355e-07
9.157255546274815e-07   -1.347500497905489e-07   -8.624571807944355e-07
9.157255546274815e-07   -1.347500497905489e-07   -8.624571807944355e-07
1.1116672078371432e-06   0.0   -1.4982953037876596e-05
1.1116672078371432e-06   0.0   -1.4982953037876596e-05
1.1116672078371432e-06   0.0   -1.4982953037876596e-05
1.1116672078371432e-06   0.0   -1.4982953037876596e-05
-7.108762416088712e-06   2.613128464002745e-07   -1.4390247058403611e-06
-7.108762416088712e-06   2.613128464002745e-07   -1.4390247058403611e-06
-7.108762416088712e-06   2.613128464002745e-07   -1.4390247058403611e-06
-7.108762416088712e-06   2.613128464002745e-07   -1.4390247058403611e-06
-3.1469155993519247e-06   -2.7719940417419024e-07   -7.718995383390298e-06
-3.1469155993519247e-06   -2.7719940417419024e-07   -7.718995383390298e-06
-3.1469155993519247e-06   -2.7719940417419024e-07   -7.718995383390298e-06
-3.1469155993519247e-06   -2.7719940417419024e-07   -7.718995383390298e-06
-7.108762416088724e-06   0.0   -1.5139740745716815e-05
-7.108762416088724e-06   0.0   -1.5139740745716815e-05
-7.108762416088724e-06   0.0   -1.5139740745716815e-05
-7.108762416088724e-06   0.0   -1.5139740745716815e-05
1.1116672078371451e-06   2.613128464002745e-07   -1.2822369980001954e-06
1.1116672078371451e-06   2.613128464002745e-07   -1.2822369980001954e-06
1.1116672078371451e-06   2.613128464002745e-07   -1.2822369980001954e-06
1.1116672078371451e-06   2.613128464002745e-07   -1.2822369980001954e-06
1.2681802743197325e-06   0.0   -1.4960434973859343e-05
1.2681802743197325e-06   0.0   -1.4960434973859343e-05
1.2681802743197325e-06   0.0   -1.4960434973859343e-05
1.2681802743197325e-06   0.0   -1.4960434973859343e-05
-6.936343132387776e-06   6.107245321857861e-07   -1.6526640153249488e-06
-6.936343132387776e-06   6.107245321857861e-07   -1.6526640153249488e-06
-6.936343132387776e-06   6.107245321857861e-07   -1.6526640153249488e-06
-6.936343132387776e-06   6.107245321857861e-07   -1.6526640153249488e-06
-2.92029107088449e-06   1.4942147654786957e-07   -8.06930228444769e-06
-2.92029107088449e-06   1.4942147654786957e-07   -8.06930228444769e-06
-2.92029107088449e-06   1.4942147654786957e-07   -8.06930228444769e-06
-2.92029107088449e-06   1.4942147654786957e-07   -8.06930228444769e-06
-6.9363431323878e-06   0.0   -1.532686969317084e-05
-6.9363431323878e-06   0.0   -1.532686969317084e-05
-6.9363431323878e-06   0.0   -1.532686969317084e-05
-6.9363431323878e-06   0.0   -1.532686969317084e-05
1.2681802743197346e-06   6.107245321857861e-07   -1.286229296013481e-06
1.2681802743197346e-06   6.107245321857861e-07   -1.286229296013481e-06
1.2681802743197346e-06   6.107245321857861e-07   -1.286229296013481e-06
1.2681802743197346e-06   6.107245321857861e-07   -1.286229296013481e-06
1.4740891863778906e-06   0.0   -1.4641387646052686e-05
1.4740891863778906e-06   0.0   -1.4641387646052686e-05
1.4740891863778906e-06   0.0   -1.4641387646052686e-05
1.4740891863778906e-06   0.0   -1.4641387646052686e-05
-6.777012834806919e-06   1.014594054278077e-06   -1.4983073766448328e-06
-6.777012834806919e-06   1.014594054278077e-06   -1.4983073766448328e-06
-6.777012834806919e-06   1.014594054278077e-06   -1.4983073766448328e-06
-6.777012834806919e-06   1.014594054278077e-06   -1.4983073766448328e-06
-2.7311269730049487e-06   5.712350392651081e-07   -7.975435070640346e-06
-2.7311269730049487e-06   5.712350392651081e-07   -7.975435070640346e-06
-2.7311269730049487e-06   5.712350392651081e-07   -7.975435070640346e-06
-2.7311269730049487e-06   5.712350392651081e-07   -7.975435070640346e-06
9.157255546274831e-07   0.0   -1.4731163782741948e-05
9.157255546274831e-07   0.0   -1.4731163782741948e-05
9.157255546274831e-07   0.0   -1.4731163782741948e-05
9.157255546274831e-07   0.0   -1.4731163782741948e-05
9.960283126515027e-06   -1.1683137618330702e-06   -3.578894200292105e-07
9.960283126515027e-06   -1.1683137618330702e-06   -3.578894200292105e-07
9.960283126515027e-06   -1.1683137618330702e-06   -3.578894200292105e-07
9.960283126515027e-06   -1.1683137618330702e-06   -3.578894200292105e-07
9.995552690657733e-06   0.0   -1.5509021003000354e-05
9.995552690657733e-06   0.0   -1.5509021003000354e-05
9.995552690657733e-06   0.0   -1.5509021003000354e-05
9.995552690657733e-06   0.0   -1.5509021003000354e-05
1.1116672078371473e-06   -8.767799418728418e-07   -1.7647723317567402e-07
1.1116672078371473e-06   -8.767799418728418e-07   -1.7647723317567402e-07
1.1116672078371473e-06   -8.767799418728418e-07   -1.7647723317567402e-07
1.1116672078371473e-06   -8.767799418728418e-07   -1.7647723317567402e-07
5.455639122642608e-06   -6.482143502153367e-07   -7.553569779512604e-06
5.455639122642608e-06   -6.482143502153367e-07   -7.553569779512604e-06
5.455639122642608e-06   -6.482143502153367e-07   -7.553569779512604e-06
5.455639122642608e-06   -6.482143502153367e-07   -7.553569779512604e-06
1.1116672078371473e-06   0.0   -1.4982953037876649e-05
1.1116672078371473e-06   0.0   -1.4982953037876649e-05
1.1116672078371473e-06   0.0   -1.4982953037876649e-05
1.1116672078371473e-06   0.0   -1.4982953037876649e-05
9.995552690657733e-06   -8.767799418728418e-07   -7.025451982993799e-07
9.995552690657733e-06   -8.767799418728418e-07   -7.025451982993799e-07
9.995552690657733e-06   -8.767799418728418e-07   -7.025451982993799e-07
9.995552690657733e-06   -8.767799418728418e-07   -7.025451982993799e-07
9.96787477413271e-06   0.0   -1.528768383031417e-05
9.96787477413271e-06   0.0   -1.528768383031417e-05
9.96787477413271e-06   0.0   -1.528768383031417e-05
9.96787477413271e-06   0.0   -1.528768383031417e-05
1.2681802743197346e-06   -5.45414760757998e-07   -4.6094414083774706e-07
1.2681802743197346e-06   -5.45414760757998e-07   -4.6094414083774706e-07
1.2681802743197346e-06   -5.45414760757998e-07   -4.6094414083774706e-07
1.2681802743197346e-06   -5.45414760757998e-07   -4.6094414083774706e-07
5.539770990984928e-06   -2.5394232703126836e-07   -7.755145462182434e-06
5.539770990984928e-06   -2.5394232703126836e-07   -7.755145462182434e-06
5.539770990984928e-06   -2.5394232703126836e-07   -7.755145462182434e-06
5.539770990984928e-06   -2.5394232703126836e-07   -7.755145462182434e-06
1.2681802743197336e-06   0.0   -1.4960434973859356e-05
1.2681802743197336e-06   0.0   -1.4960434973859356e-05
1.2681802743197336e-06   0.0   -1.4960434973859356e-05
1.2681802743197336e-06   0.0   -1.4960434973859356e-05
9.96787477413271e-06   -5.45414760757998e-07   -7.881929972925485e-07
9.96787477413271e-06   -5.45414760757998e-07   -7.881929972925485e-07
9.96787477413271e-06   -5.45414760757998e-07   -7.881929972925485e-07
9.96787477413271e-06   -5.45414760757998e-07   -7.881929972925485e-07
1.0175461959669186e-05   0.0   -1.4702021269994405e-05
1.0175461959669186e-05   0.0   -1.4702021269994405e-05
1.0175461959669186e-05   0.0   -1.4702021269994405e-05
1.0175461959669186e-05   0.0   -1.4702021269994405e-05
1.4740891863778931e-06   -1.0105603990282199e-07   -1.390996905672241e-07
1.4740891863778931e-06   -1.0105603990282199e-07   -1.390996905672241e-07
1.4740891863778931e-06   -1.0105603990282199e-07   -1.390996905672241e-07
1.4740891863778931e-06   -1.0105603990282199e-07   -1.390996905672241e-07
5.721821116994456e-06   2.1534475322080402e-07   -7.408493384135665e-06
5.721821116994456e-06   2.1534475322080402e-07   -7.408493384135665e-06
5.721821116994456e-06   2.1534475322080402e-07   -7.408493384135665e-06
5.721821116994456e-06   2.1534475322080402e-07   -7.408493384135665e-06
9.960283126515027e-06   0.0   -1.543215203984179e-05
9.960283126515027e-06   0.0   -1.543215203984179e-05
9.960283126515027e-06   0.0   -1.543215203984179e-05
9.960283126515027e-06   0.0   -1.543215203984179e-05
2.2579600095543097e-05   -2.9734822732021816e-06   3.8159535446171436e-06
2.2579600095543097e-05   -2.9734822732021816e-06   3.8159535446171436e-06
2.2579600095543097e-05   -2.9734822732021816e-06   3.8159535446171436e-06
2.2579600095543097e-05   -2.9734822732021816e-06   3.8159535446171436e-06
2.1228695575568044e-05   0.0   -1.702143278798048e-05
2.1228695575568044e-05   0.0   -1.702143278798048e-05
2.1228695575568044e-05   0.0   -1.702143278798048e-05
2.1228695575568044e-05   0.0   -1.702143278798048e-05
9.995552690657733e-06   -2.520686308300209e-06   3.2128838051834934e-06
9.995552690657733e-06   -2.520686308300209e-06   3.2128838051834934e-06
9.995552690657733e-06   -2.520686308300209e-06   3.2128838051834934e-06
9.995552690657733e-06   -2.520686308300209e-06   3.2128838051834934e-06
1.5594489351041534e-05   -1.3244006234489078e-06   -6.836448706366949e-06
1.5594489351041534e-05   -1.3244006234489078e-06   -6.836448706366949e-06
1.5594489351041534e-05   -1.3244006234489078e-06   -6.836448706366949e-06
1.5594489351041534e-05   -1.3244006234489078e-06   -6.836448706366949e-06
9.995552690657724e-06   0.0   -1.550902100300034e-05
9.995552690657724e-06   0.0   -1.550902100300034e-05
9.995552690657724e-06   0.0   -1.550902100300034e-05
9.995552690657724e-06   0.0   -1.550902100300034e-05
2.122869557556797e-05   -2.520686308300202e-06   1.7004720202033673e-06
2.122869557556797e-05   -2.520686308300202e-06   1.7004720202033673e-06
2.122869557556797e-05   -2.520686308300202e-06   1.7004720202033673e-06
2.122869557556797e-05   -2.520686308300202e-06   1.7004720202033673e-06
2.061257427058508e-05   0.0   -1.6667713757683157e-05
2.061257427058508e-05   0.0   -1.6667713757683157e-05
2.061257427058508e-05   0.0   -1.6667713757683157e-05
2.061257427058508e-05   0.0   -1.6667713757683157e-05
9.96787477413271e-06   -2.300049878948311e-06   2.4534819971064476e-06
9.96787477413271e-06   -2.300049878948311e-06   2.4534819971064476e-06
9.96787477413271e-06   -2.300049878948311e-06   2.4534819971064476e-06
9.96787477413271e-06   -2.300049878948311e-06   2.4534819971064476e-06
1.53040634806214e-05   -9.655772955690029e-07   -7.240849397068952e-06
1.53040634806214e-05   -9.655772955690029e-07   -7.240849397068952e-06
1.53040634806214e-05   -9.655772955690029e-07   -7.240849397068952e-06
1.53040634806214e-05   -9.655772955690029e-07   -7.240849397068952e-06
9.96787477413271e-06   0.0   -1.528768383031417e-05
9.96787477413271e-06   0.0   -1.528768383031417e-05
9.96787477413271e-06   0.0   -1.528768383031417e-05
9.96787477413271e-06   0.0   -1.528768383031417e-05
2.061257427058501e-05   -2.3000498789483007e-06   1.0734520697374536e-06
2.061257427058501e-05   -2.3000498789483007e-06   1.0734520697374536e-06
2.061257427058501e-05   -2.3000498789483007e-06   1.0734520697374536e-06
2.061257427058501e-05   -2.3000498789483007e-06   1.0734520697374536e-06
1.9684766826098655e-05   0.0   -1.57680734340934e-05
1.9684766826098655e-05   0.0   -1.57680734340934e-05
1.9684766826098655e-05   0.0   -1.57680734340934e-05
1.9684766826098655e-05   0.0   -1.57680734340934e-05
1.0175461959669186e-05   -1.7767536068317077e-06   1.1468201740547593e-06
1.0175461959669186e-05   -1.7767536068317077e-06   1.1468201740547593e-06
1.0175461959669186e-05   -1.7767536068317077e-06   1.1468201740547593e-06
1.0175461959669186e-05   -1.7767536068317077e-06   1.1468201740547593e-06
1.48263208001157e-05   -4.0032466981604914e-07   -7.430468588898815e-06
1.48263208001157e-05   -4.0032466981604914e-07   -7.430468588898815e-06
1.48263208001157e-05   -4.0032466981604914e-07   -7.430468588898815e-06
1.48263208001157e-05   -4.0032466981604914e-07   -7.430468588898815e-06
-2.200827908430442e-05   2.8027264975200386e-06   -1.4567431128886499e-05
-2.200827908430442e-05   2.8027264975200386e-06   -1.4567431128886499e-05
-2.200827908430442e-05   2.8027264975200386e-06   -1.4567431128886499e-05