<?xml version="1.0"?> 
<VTKFile type="UnstructuredGrid"> 
   <UnstructuredGrid> 
      <Piece NumberOfPoints="6000"  NumberOfCells="1500">  
          <Points>  
             <DataArray type="Float64" NumberOfComponents="3" format="ascii">   
-500.0   0.0   0.0
-450.0   0.0   0.0
-500.0   30.0   0.0
-500.0   0.0   16.666666666666668
-450.0   0.0   0.0
-450.0   30.0   0.0
-500.0   30.0   0.0
-450.0   30.0   16.666666666666668
-500.0   0.0   16.666666666666668
-500.0   30.0   16.666666666666668
-450.0   30.0   16.666666666666668
-500.0   30.0   0.0
-500.0   0.0   16.666666666666668
-450.0   30.0   16.666666666666668
-450.0   0.0   16.666666666666668
-450.0   0.0   0.0
-500.0   0.0   16.666666666666668
-450.0   30.0   16.666666666666668
-450.0   0.0   0.0
-500.0   30.0   0.0
-500.0   0.0   16.666666666666668
-450.0   0.0   16.666666666666668
-500.0   30.0   16.666666666666668
-500.0   0.0   33.333333333333336
-450.0   0.0   16.666666666666668
-450.0   30.0   16.666666666666668
-500.0   30.0   16.666666666666668
-450.0   30.0   33.333333333333336
-500.0   0.0   33.333333333333336
-500.0   30.0   33.333333333333336
-450.0   30.0   33.333333333333336
-500.0   30.0   16.666666666666668
-500.0   0.0   33.333333333333336
-450.0   30.0   33.333333333333336
-450.0   0.0   33.333333333333336
-450.0   0.0   16.666666666666668
-500.0   0.0   33.333333333333336
-450.0   30.0   33.333333333333336
-450.0   0.0   16.666666666666668
-500.0   30.0   16.666666666666668
-500.0   0.0   33.333333333333336
-450.0   0.0   33.333333333333336
-500.0   30.0   33.333333333333336
-500.0   0.0   50.0
-450.0   0.0   33.333333333333336
-450.0   30.0   33.333333333333336
-500.0   30.0   33.333333333333336
-450.0   30.0   50.0
-500.0   0.0   50.0
-500.0   30.0   50.0
-450.0   30.0   50.0
-500.0   30.0   33.333333333333336
-500.0   0.0   50.0
-450.0   30.0   50.0
-450.0   0.0   50.0
-450.0   0.0   33.333333333333336
-500.0   0.0   50.0
-450.0   30.0   50.0
-450.0   0.0   33.333333333333336
-500.0   30.0   33.333333333333336
-500.0   30.0   0.0
-450.0   30.0   0.0
-500.0   60.0   0.0
-500.0   30.0   16.666666666666668
-450.0   30.0   0.0
-450.0   60.0   0.0
-500.0   60.0   0.0
-450.0   60.0   16.666666666666668
-500.0   30.0   16.666666666666668
-500.0   60.0   16.666666666666668
-450.0   60.0   16.666666666666668
-500.0   60.0   0.0
-500.0   30.0   16.666666666666668
-450.0   60.0   16.666666666666668
-450.0   30.0   16.666666666666668
-450.0   30.0   0.0
-500.0   30.0   16.666666666666668
-450.0   60.0   16.666666666666668
-450.0   30.0   0.0
-500.0   60.0   0.0
-500.0   30.0   16.666666666666668
-450.0   30.0   16.666666666666668
-500.0   60.0   16.666666666666668
-500.0   30.0   33.333333333333336
-450.0   30.0   16.666666666666668
-450.0   60.0   16.666666666666668
-500.0   60.0   16.666666666666668
-450.0   60.0   33.333333333333336
-500.0   30.0   33.333333333333336
-500.0   60.0   33.333333333333336
-450.0   60.0   33.333333333333336
-500.0   60.0   16.666666666666668
-500.0   30.0   33.333333333333336
-450.0   60.0   33.333333333333336
-450.0   30.0   33.333333333333336
-450.0   30.0   16.666666666666668
-500.0   30.0   33.333333333333336
-450.0   60.0   33.333333333333336
-450.0   30.0   16.666666666666668
-500.0   60.0   16.666666666666668
-500.0   30.0   33.333333333333336
-450.0   30.0   33.333333333333336
-500.0   60.0   33.333333333333336
-500.0   30.0   50.0
-450.0   30.0   33.333333333333336
-450.0   60.0   33.333333333333336
-500.0   60.0   33.333333333333336
-450.0   60.0   50.0
-500.0   30.0   50.0
-500.0   60.0   50.0
-450.0   60.0   50.0
-500.0   60.0   33.333333333333336
-500.0   30.0   50.0
-450.0   60.0   50.0
-450.0   30.0   50.0
-450.0   30.0   33.333333333333336
-500.0   30.0   50.0
-450.0   60.0   50.0
-450.0   30.0   33.333333333333336
-500.0   60.0   33.333333333333336
-500.0   60.0   0.0
-450.0   60.0   0.0
-500.0   90.0   0.0
-500.0   60.0   16.666666666666668
-450.0   60.0   0.0
-450.0   90.0   0.0
-500.0   90.0   0.0
-450.0   90.0   16.666666666666668
-500.0   60.0   16.666666666666668
-500.0   90.0   16.666666666666668
-450.0   90.0   16.666666666666668
-500.0   90.0   0.0
-500.0   60.0   16.666666666666668
-450.0   90.0   16.666666666666668
-450.0   60.0   16.666666666666668
-450.0   60.0   0.0
-500.0   60.0   16.666666666666668
-450.0   90.0   16.666666666666668
-450.0   60.0   0.0
-500.0   90.0   0.0
-500.0   60.0   16.666666666666668
-450.0   60.0   16.666666666666668
-500.0   90.0   16.666666666666668
-500.0   60.0   33.333333333333336
-450.0   60.0   16.666666666666668
-450.0   90.0   16.666666666666668
-500.0   90.0   16.666666666666668
-450.0   90.0   33.333333333333336
-500.0   60.0   33.333333333333336
-500.0   90.0   33.333333333333336
-450.0   90.0   33.333333333333336
-500.0   90.0   16.666666666666668
-500.0   60.0   33.333333333333336
-450.0   90.0   33.333333333333336
-450.0   60.0   33.333333333333336
-450.0   60.0   16.666666666666668
-500.0   60.0   33.333333333333336
-450.0   90.0   33.333333333333336
-450.0   60.0   16.666666666666668
-500.0   90.0   16.666666666666668
-500.0   60.0   33.333333333333336
-450.0   60.0   33.333333333333336
-500.0   90.0   33.333333333333336
-500.0   60.0   50.0
-450.0   60.0   33.333333333333336
-450.0   90.0   33.333333333333336
-500.0   90.0   33.333333333333336
-450.0   90.0   50.0
-500.0   60.0   50.0
-500.0   90.0   50.0
-450.0   90.0   50.0
-500.0   90.0   33.333333333333336
-500.0   60.0   50.0
-450.0   90.0   50.0
-450.0   60.0   50.0
-450.0   60.0   33.333333333333336
-500.0   60.0   50.0
-450.0   90.0   50.0
-450.0   60.0   33.333333333333336
-500.0   90.0   33.333333333333336
-500.0   90.0   0.0
-450.0   90.0   0.0
-500.0   120.0   0.0
-500.0   90.0   16.666666666666668
-450.0   90.0   0.0
-450.0   120.0   0.0
-500.0   120.0   0.0
-450.0   120.0   16.666666666666668
-500.0   90.0   16.666666666666668
-500.0   120.0   16.666666666666668
-450.0   120.0   16.666666666666668
-500.0   120.0   0.0
-500.0   90.0   16.666666666666668
-450.0   120.0   16.666666666666668
-450.0   90.0   16.666666666666668
-450.0   90.0   0.0
-500.0   90.0   16.666666666666668
-450.0   120.0   16.666666666666668
-450.0   90.0   0.0
-500.0   120.0   0.0
-500.0   90.0   16.666666666666668
-450.0   90.0   16.666666666666668
-500.0   120.0   16.666666666666668
-500.0   90.0   33.333333333333336
-450.0   90.0   16.666666666666668
-450.0   120.0   16.666666666666668
-500.0   120.0   16.666666666666668
-450.0   120.0   33.333333333333336
-500.0   90.0   33.333333333333336
-500.0   120.0   33.333333333333336
-450.0   120.0   33.333333333333336
-500.0   120.0   16.666666666666668
-500.0   90.0   33.333333333333336
-450.0   120.0   33.333333333333336
-450.0   90.0   33.333333333333336
-450.0   90.0   16.666666666666668
-500.0   90.0   33.333333333333336
-450.0   120.0   33.333333333333336
-450.0   90.0   16.666666666666668
-500.0   120.0   16.666666666666668
-500.0   90.0   33.333333333333336
-450.0   90.0   33.333333333333336
-500.0   120.0   33.333333333333336
-500.0   90.0   50.0
-450.0   90.0   33.333333333333336
-450.0   120.0   33.333333333333336
-500.0   120.0   33.333333333333336
-450.0   120.0   50.0
-500.0   90.0   50.0
-500.0   120.0   50.0
-450.0   120.0   50.0
-500.0   120.0   33.333333333333336
-500.0   90.0   50.0
-450.0   120.0   50.0
-450.0   90.0   50.0
-450.0   90.0   33.333333333333336
-500.0   90.0   50.0
-450.0   120.0   50.0
-450.0   90.0   33.333333333333336
-500.0   120.0   33.333333333333336
-500.0   120.0   0.0
-450.0   120.0   0.0
-500.0   150.0   0.0
-500.0   120.0   16.666666666666668
-450.0   120.0   0.0
-450.0   150.0   0.0
-500.0   150.0   0.0
-450.0   150.0   16.666666666666668
-500.0   120.0   16.666666666666668
-500.0   150.0   16.666666666666668
-450.0   150.0   16.666666666666668
-500.0   150.0   0.0
-500.0   120.0   16.666666666666668
-450.0   150.0   16.666666666666668
-450.0   120.0   16.666666666666668
-450.0   120.0   0.0
-500.0   120.0   16.666666666666668
-450.0   150.0   16.666666666666668
-450.0   120.0   0.0
-500.0   150.0   0.0
-500.0   120.0   16.666666666666668
-450.0   120.0   16.666666666666668
-500.0   150.0   16.666666666666668
-500.0   120.0   33.333333333333336
-450.0   120.0   16.666666666666668
-450.0   150.0   16.666666666666668
-500.0   150.0   16.666666666666668
-450.0   150.0   33.333333333333336
-500.0   120.0   33.333333333333336
-500.0   150.0   33.333333333333336
-450.0   150.0   33.333333333333336
-500.0   150.0   16.666666666666668
-500.0   120.0   33.333333333333336
-450.0   150.0   33.333333333333336
-450.0   120.0   33.333333333333336
-450.0   120.0   16.666666666666668
-500.0   120.0   33.333333333333336
-450.0   150.0   33.333333333333336
-450.0   120.0   16.666666666666668
-500.0   150.0   16.666666666666668
-500.0   120.0   33.333333333333336
-450.0   120.0   33.333333333333336
-500.0   150.0   33.333333333333336
-500.0   120.0   50.0
-450.0   120.0   33.333333333333336
-450.0   150.0   33.333333333333336
-500.0   150.0   33.333333333333336
-450.0   150.0   50.0
-500.0   120.0   50.0
-500.0   150.0   50.0
-450.0   150.0   50.0
-500.0   150.0   33.333333333333336
-500.0   120.0   50.0
-450.0   150.0   50.0
-450.0   120.0   50.0
-450.0   120.0   33.333333333333336
-500.0   120.0   50.0
-450.0   150.0   50.0
-450.0   120.0   33.333333333333336
-500.0   150.0   33.333333333333336
-450.0   0.0   0.0
-400.0   0.0   0.0
-450.0   30.0   0.0
-450.0   0.0   16.666666666666668
-400.0   0.0   0.0
-400.0   30.0   0.0
-450.0   30.0   0.0
-400.0   30.0   16.666666666666668
-450.0   0.0   16.666666666666668
-450.0   30.0   16.666666666666668
-400.0   30.0   16.666666666666668
-450.0   30.0   0.0
-450.0   0.0   16.666666666666668
-400.0   30.0   16.666666666666668
-400.0   0.0   16.666666666666668
-400.0   0.0   0.0
-450.0   0.0   16.666666666666668
-400.0   30.0   16.666666666666668
-400.0   0.0   0.0
-450.0   30.0   0.0
-450.0   0.0   16.666666666666668
-400.0   0.0   16.666666666666668
-450.0   30.0   16.666666666666668
[...]
          <PointData>  
             <DataArray type="Float64" NumberOfComponents="3" Name="Strains" format="ascii">   
-0.0001256662772533755   0.0   -8.238872985365726e-05
-0.0001256662772533755   0.0   -8.238872985365726e-05
-0.0001256662772533755   0.0   -8.238872985365726e-05
-0.0001256662772533755   0.0   -8.238872985365726e-05
-7.997242082077715e-05   1.3932860892949567e-05   2.1274140697762306e-06
-7.997242082077715e-05   1.3932860892949567e-05   2.1274140697762306e-06
-7.997242082077715e-05   1.3932860892949567e-05   2.1274140697762306e-06
-7.997242082077715e-05   1.3932860892949567e-05   2.1274140697762306e-06
-7.839695842424309e-05   0.0   -7.774734525313615e-05
-7.839695842424309e-05   0.0   -7.774734525313615e-05
-7.839695842424309e-05   0.0   -7.774734525313615e-05
-7.839695842424309e-05   0.0   -7.774734525313615e-05
-0.00013152329092700626   1.6714681082323274e-05   7.677336020755045e-07
-0.00013152329092700626   1.6714681082323274e-05   7.677336020755045e-07
-0.00013152329092700626   1.6714681082323274e-05   7.677336020755045e-07
-0.00013152329092700626   1.6714681082323274e-05   7.677336020755045e-07
-0.00010203161783880913   3.8678205004342466e-06   -4.067693852911959e-05
-0.00010203161783880913   3.8678205004342466e-06   -4.067693852911959e-05
-0.00010203161783880913   3.8678205004342466e-06   -4.067693852911959e-05
-0.00010203161783880913   3.8678205004342466e-06   -4.067693852911959e-05
-0.00013152329092700648   0.0   -8.777615390253013e-05
-0.00013152329092700648   0.0   -8.777615390253013e-05
-0.00013152329092700648   0.0   -8.777615390253013e-05
-0.00013152329092700648   0.0   -8.777615390253013e-05
-7.839695842424309e-05   1.67146810823233e-05   1.0796542251469458e-05
-7.839695842424309e-05   1.67146810823233e-05   1.0796542251469458e-05
-7.839695842424309e-05   1.67146810823233e-05   1.0796542251469458e-05
-7.839695842424309e-05   1.67146810823233e-05   1.0796542251469458e-05
-7.862468381293002e-05   0.0   -7.965211219229976e-05
-7.862468381293002e-05   0.0   -7.965211219229976e-05
-7.862468381293002e-05   0.0   -7.965211219229976e-05
-7.862468381293002e-05   0.0   -7.965211219229976e-05
-0.00013563965890356835   1.7905773259718137e-05   4.629382336266921e-06
-0.00013563965890356835   1.7905773259718137e-05   4.629382336266921e-06
-0.00013563965890356835   1.7905773259718137e-05   4.629382336266921e-06
-0.00013563965890356835   1.7905773259718137e-05   4.629382336266921e-06
-0.00010507398736996808   6.770034758525286e-06   -3.963196045235114e-05
-0.00010507398736996808   6.770034758525286e-06   -3.963196045235114e-05
-0.00010507398736996808   6.770034758525286e-06   -3.963196045235114e-05
-0.00010507398736996808   6.770034758525286e-06   -3.963196045235114e-05
-0.0001356396589035686   0.0   -9.039557614813067e-05
-0.0001356396589035686   0.0   -9.039557614813067e-05
-0.0001356396589035686   0.0   -9.039557614813067e-05
-0.0001356396589035686   0.0   -9.039557614813067e-05
-7.862468381293002e-05   1.7905773259718164e-05   1.537284629209783e-05
-7.862468381293002e-05   1.7905773259718164e-05   1.537284629209783e-05
-7.862468381293002e-05   1.7905773259718164e-05   1.537284629209783e-05
-7.862468381293002e-05   1.7905773259718164e-05   1.537284629209783e-05
-7.85908331639066e-05   0.0   -8.01405155168807e-05
-7.85908331639066e-05   0.0   -8.01405155168807e-05
-7.85908331639066e-05   0.0   -8.01405155168807e-05
-7.85908331639066e-05   0.0   -8.01405155168807e-05
-0.00014450086792640622   2.0393697999184906e-05   1.7473323621108075e-05
-0.00014450086792640622   2.0393697999184906e-05   1.7473323621108075e-05
-0.00014450086792640622   2.0393697999184906e-05   1.7473323621108075e-05
-0.00014450086792640622   2.0393697999184906e-05   1.7473323621108075e-05
-0.0001071152460337374   8.545883859374979e-06   -3.77273577161206e-05
-0.0001071152460337374   8.545883859374979e-06   -3.77273577161206e-05
-0.0001071152460337374   8.545883859374979e-06   -3.77273577161206e-05
-0.0001071152460337374   8.545883859374979e-06   -3.77273577161206e-05
-7.997242082077729e-05   0.0   -7.402901331788752e-05
-7.997242082077729e-05   0.0   -7.402901331788752e-05
-7.997242082077729e-05   0.0   -7.402901331788752e-05
-7.997242082077729e-05   0.0   -7.402901331788752e-05
-3.641220336714074e-05   5.1122341749948805e-06   1.6386896098369609e-06
-3.641220336714074e-05   5.1122341749948805e-06   1.6386896098369609e-06
-3.641220336714074e-05   5.1122341749948805e-06   1.6386896098369609e-06
-3.641220336714074e-05   5.1122341749948805e-06   1.6386896098369609e-06
-3.502720595829042e-05   0.0   -7.338266513898891e-05
-3.502720595829042e-05   0.0   -7.338266513898891e-05
-3.502720595829042e-05   0.0   -7.338266513898891e-05
-3.502720595829042e-05   0.0   -7.338266513898891e-05
-7.839695842424309e-05   7.274466856912055e-06   -5.464424476548394e-06
-7.839695842424309e-05   7.274466856912055e-06   -5.464424476548394e-06
-7.839695842424309e-05   7.274466856912055e-06   -5.464424476548394e-06
-7.839695842424309e-05   7.274466856912055e-06   -5.464424476548394e-06
-5.749981338953376e-05   5.386234824154905e-07   -3.6251493509699065e-05
-5.749981338953376e-05   5.386234824154905e-07   -3.6251493509699065e-05
-5.749981338953376e-05   5.386234824154905e-07   -3.6251493509699065e-05
-5.749981338953376e-05   5.386234824154905e-07   -3.6251493509699065e-05
-7.839695842424302e-05   0.0   -7.774734525313608e-05
-7.839695842424302e-05   0.0   -7.774734525313608e-05
-7.839695842424302e-05   0.0   -7.774734525313608e-05
-7.839695842424302e-05   0.0   -7.774734525313608e-05
-3.502720595829042e-05   7.274466856912055e-06   -1.0997443624011417e-06
-3.502720595829042e-05   7.274466856912055e-06   -1.0997443624011417e-06
-3.502720595829042e-05   7.274466856912055e-06   -1.0997443624011417e-06
-3.502720595829042e-05   7.274466856912055e-06   -1.0997443624011417e-06
-3.425205980279823e-05   0.0   -7.430518708936409e-05
-3.425205980279823e-05   0.0   -7.430518708936409e-05
-3.425205980279823e-05   0.0   -7.430518708936409e-05
-3.425205980279823e-05   0.0   -7.430518708936409e-05
-7.862468381293002e-05   8.911541838226152e-06   -5.6977388420801375e-06
-7.862468381293002e-05   8.911541838226152e-06   -5.6977388420801375e-06
-7.862468381293002e-05   8.911541838226152e-06   -5.6977388420801375e-06
-7.862468381293002e-05   8.911541838226152e-06   -5.6977388420801375e-06
-5.6324509113520545e-05   2.8684651364767257e-06   -3.9238850653379265e-05
-5.6324509113520545e-05   2.8684651364767257e-06   -3.9238850653379265e-05
-5.6324509113520545e-05   2.8684651364767257e-06   -3.9238850653379265e-05
-5.6324509113520545e-05   2.8684651364767257e-06   -3.9238850653379265e-05
-7.862468381293002e-05   0.0   -7.965211219229976e-05
-7.862468381293002e-05   0.0   -7.965211219229976e-05
-7.862468381293002e-05   0.0   -7.965211219229976e-05
-7.862468381293002e-05   0.0   -7.965211219229976e-05
-3.425205980279823e-05   8.911541838226152e-06   -3.5081373914444205e-07
-3.425205980279823e-05   8.911541838226152e-06   -3.5081373914444205e-07
-3.425205980279823e-05   8.911541838226152e-06   -3.5081373914444205e-07
-3.425205980279823e-05   8.911541838226152e-06   -3.5081373914444205e-07
-3.3547324096917925e-05   0.0   -7.391968799240436e-05
-3.3547324096917925e-05   0.0   -7.391968799240436e-05
-3.3547324096917925e-05   0.0   -7.391968799240436e-05
-3.3547324096917925e-05   0.0   -7.391968799240436e-05
-7.85908331639064e-05   1.0368045874127108e-05   -5.068000405232894e-06
-7.85908331639064e-05   1.0368045874127108e-05   -5.068000405232894e-06
-7.85908331639064e-05   1.0368045874127108e-05   -5.068000405232894e-06
-7.85908331639064e-05   1.0368045874127108e-05   -5.068000405232894e-06
-5.608600395492396e-05   4.777020166579464e-06   -3.922143366234198e-05
-5.608600395492396e-05   4.777020166579464e-06   -3.922143366234198e-05
-5.608600395492396e-05   4.777020166579464e-06   -3.922143366234198e-05
-5.608600395492396e-05   4.777020166579464e-06   -3.922143366234198e-05
-3.6412203367140805e-05   0.0   -7.096167281289057e-05
-3.6412203367140805e-05   0.0   -7.096167281289057e-05
-3.6412203367140805e-05   0.0   -7.096167281289057e-05
-3.6412203367140805e-05   0.0   -7.096167281289057e-05
4.749687099943355e-06   -6.532899665074519e-07   -2.7504960143213833e-06
4.749687099943355e-06   -6.532899665074519e-07   -2.7504960143213833e-06
4.749687099943355e-06   -6.532899665074519e-07   -2.7504960143213833e-06
4.749687099943355e-06   -6.532899665074519e-07   -2.7504960143213833e-06
5.630654315925846e-06   0.0   -7.260930740040499e-05
5.630654315925846e-06   0.0   -7.260930740040499e-05
5.630654315925846e-06   0.0   -7.260930740040499e-05
5.630654315925846e-06   0.0   -7.260930740040499e-05
-3.502720595829036e-05   1.288929564306109e-06   -5.619564681961768e-06
-3.502720595829036e-05   1.288929564306109e-06   -5.619564681961768e-06
-3.502720595829036e-05   1.288929564306109e-06   -5.619564681961768e-06
-3.502720595829036e-05   1.288929564306109e-06   -5.619564681961768e-06
-1.5390774525607414e-05   -1.3730288229288817e-06   -3.674977537075886e-05
-1.5390774525607414e-05   -1.3730288229288817e-06   -3.674977537075886e-05
-1.5390774525607414e-05   -1.3730288229288817e-06   -3.674977537075886e-05
-1.5390774525607414e-05   -1.3730288229288817e-06   -3.674977537075886e-05
-3.502720595829042e-05   0.0   -7.338266513898891e-05
-3.502720595829042e-05   0.0   -7.338266513898891e-05
-3.502720595829042e-05   0.0   -7.338266513898891e-05
-3.502720595829042e-05   0.0   -7.338266513898891e-05
5.630654315925856e-06   1.288929564306109e-06   -4.846206943378092e-06
5.630654315925856e-06   1.288929564306109e-06   -4.846206943378092e-06
5.630654315925856e-06   1.288929564306109e-06   -4.846206943378092e-06
5.630654315925856e-06   1.288929564306109e-06   -4.846206943378092e-06
6.325092892861361e-06   0.0   -7.250593813482915e-05
6.325092892861361e-06   0.0   -7.250593813482915e-05
6.325092892861361e-06   0.0   -7.250593813482915e-05
6.325092892861361e-06   0.0   -7.250593813482915e-05
-3.4252059802798107e-05   2.998748257557993e-06   -6.676599263264745e-06
-3.4252059802798107e-05   2.998748257557993e-06   -6.676599263264745e-06
-3.4252059802798107e-05   2.998748257557993e-06   -6.676599263264745e-06
-3.4252059802798107e-05   2.998748257557993e-06   -6.676599263264745e-06
-1.43510565327145e-05   7.306058367996946e-07   -3.8484052594282505e-05
-1.43510565327145e-05   7.306058367996946e-07   -3.8484052594282505e-05
-1.43510565327145e-05   7.306058367996946e-07   -3.8484052594282505e-05
-1.43510565327145e-05   7.306058367996946e-07   -3.8484052594282505e-05
-3.425205980279823e-05   0.0   -7.430518708936409e-05
-3.425205980279823e-05   0.0   -7.430518708936409e-05
-3.425205980279823e-05   0.0   -7.430518708936409e-05
-3.425205980279823e-05   0.0   -7.430518708936409e-05
6.325092892861372e-06   2.9987482575580065e-06   -4.877350308729957e-06
6.325092892861372e-06   2.9987482575580065e-06   -4.877350308729957e-06
6.325092892861372e-06   2.9987482575580065e-06   -4.877350308729957e-06
6.325092892861372e-06   2.9987482575580065e-06   -4.877350308729957e-06
7.261664879808323e-06   0.0   -7.093195895801707e-05
7.261664879808323e-06   0.0   -7.093195895801707e-05
7.261664879808323e-06   0.0   -7.093195895801707e-05
7.261664879808323e-06   0.0   -7.093195895801707e-05
-3.354732409691784e-05   4.979548390645375e-06   -5.904706364527264e-06
-3.354732409691784e-05   4.979548390645375e-06   -5.904706364527264e-06
-3.354732409691784e-05   4.979548390645375e-06   -5.904706364527264e-06
-3.354732409691784e-05   4.979548390645375e-06   -5.904706364527264e-06
-1.3495197461494921e-05   2.811023442789062e-06   -3.802380245485174e-05
-1.3495197461494921e-05   2.811023442789062e-06   -3.802380245485174e-05
-1.3495197461494921e-05   2.811023442789062e-06   -3.802380245485174e-05
-1.3495197461494921e-05   2.811023442789062e-06   -3.802380245485174e-05
4.749687099943364e-06   0.0   -7.135364679279504e-05
4.749687099943364e-06   0.0   -7.135364679279504e-05
4.749687099943364e-06   0.0   -7.135364679279504e-05
4.749687099943364e-06   0.0   -7.135364679279504e-05
4.942465396976656e-05   -5.796972138749203e-06   -3.7355195967252554e-07
4.942465396976656e-05   -5.796972138749203e-06   -3.7355195967252554e-07
4.942465396976656e-05   -5.796972138749203e-06   -3.7355195967252554e-07
4.942465396976656e-05   -5.796972138749203e-06   -3.7355195967252554e-07
4.9503452814381575e-05   0.0   -7.523251895698309e-05
4.9503452814381575e-05   0.0   -7.523251895698309e-05
4.9503452814381575e-05   0.0   -7.523251895698309e-05
4.9503452814381575e-05   0.0   -7.523251895698309e-05
5.630654315925865e-06   -4.372019260963082e-06   5.120234303542698e-07
5.630654315925865e-06   -4.372019260963082e-06   5.120234303542698e-07
5.630654315925865e-06   -4.372019260963082e-06   5.120234303542698e-07
5.630654315925865e-06   -4.372019260963082e-06   5.120234303542698e-07
2.712656995716247e-05   -3.2323934701567036e-06   -3.5998278112857196e-05
2.712656995716247e-05   -3.2323934701567036e-06   -3.5998278112857196e-05
2.712656995716247e-05   -3.2323934701567036e-06   -3.5998278112857196e-05
2.712656995716247e-05   -3.2323934701567036e-06   -3.5998278112857196e-05
5.630654315925865e-06   0.0   -7.260930740040524e-05
5.630654315925865e-06   0.0   -7.260930740040524e-05
5.630654315925865e-06   0.0   -7.260930740040524e-05
5.630654315925865e-06   0.0   -7.260930740040524e-05
4.9503452814381575e-05   -4.372019260963082e-06   -2.1111881262235774e-06
4.9503452814381575e-05   -4.372019260963082e-06   -2.1111881262235774e-06
4.9503452814381575e-05   -4.372019260963082e-06   -2.1111881262235774e-06
4.9503452814381575e-05   -4.372019260963082e-06   -2.1111881262235774e-06
4.928360612748329e-05   0.0   -7.41581618945917e-05
4.928360612748329e-05   0.0   -7.41581618945917e-05
4.928360612748329e-05   0.0   -7.41581618945917e-05
4.928360612748329e-05   0.0   -7.41581618945917e-05
6.325092892861372e-06   -2.753706266270706e-06   -9.084160771260938e-07
6.325092892861372e-06   -2.753706266270706e-06   -9.084160771260938e-07
6.325092892861372e-06   -2.753706266270706e-06   -9.084160771260938e-07
6.325092892861372e-06   -2.753706266270706e-06   -9.084160771260938e-07
2.745713022170458e-05   -1.2907120784887196e-06   -3.700627480453393e-05
2.745713022170458e-05   -1.2907120784887196e-06   -3.700627480453393e-05
2.745713022170458e-05   -1.2907120784887196e-06   -3.700627480453393e-05
2.745713022170458e-05   -1.2907120784887196e-06   -3.700627480453393e-05
6.325092892861367e-06   0.0   -7.250593813482922e-05
6.325092892861367e-06   0.0   -7.250593813482922e-05
6.325092892861367e-06   0.0   -7.250593813482922e-05
6.325092892861367e-06   0.0   -7.250593813482922e-05
4.928360612748329e-05   -2.753706266270706e-06   -2.560639836888512e-06
4.928360612748329e-05   -2.753706266270706e-06   -2.560639836888512e-06
4.928360612748329e-05   -2.753706266270706e-06   -2.560639836888512e-06
4.928360612748329e-05   -2.753706266270706e-06   -2.560639836888512e-06
5.0230557136314675e-05   0.0   -7.127910561239778e-05
5.0230557136314675e-05   0.0   -7.127910561239778e-05
5.0230557136314675e-05   0.0   -7.127910561239778e-05
5.0230557136314675e-05   0.0   -7.127910561239778e-05
7.261664879808336e-06   -5.785777573009791e-07   6.828614694933592e-07
7.261664879808336e-06   -5.785777573009791e-07   6.828614694933592e-07
7.261664879808336e-06   -5.785777573009791e-07   6.828614694933592e-07
7.261664879808336e-06   -5.785777573009791e-07   6.828614694933592e-07
2.8277825014588002e-05   1.0223604353595827e-06   -3.530463500406906e-05
2.8277825014588002e-05   1.0223604353595827e-06   -3.530463500406906e-05
2.8277825014588002e-05   1.0223604353595827e-06   -3.530463500406906e-05
2.8277825014588002e-05   1.0223604353595827e-06   -3.530463500406906e-05
4.942465396976656e-05   0.0   -7.483183007604456e-05
4.942465396976656e-05   0.0   -7.483183007604456e-05
4.942465396976656e-05   0.0   -7.483183007604456e-05
4.942465396976656e-05   0.0   -7.483183007604456e-05
0.00011153517017765647   -1.4689184772362878e-05   1.9872186073688184e-05
0.00011153517017765647   -1.4689184772362878e-05   1.9872186073688184e-05
0.00011153517017765647   -1.4689184772362878e-05   1.9872186073688184e-05
0.00011153517017765647   -1.4689184772362878e-05   1.9872186073688184e-05
0.0001047377214707448   0.0   -8.273429378856082e-05
0.0001047377214707448   0.0   -8.273429378856082e-05
0.0001047377214707448   0.0   -8.273429378856082e-05
0.0001047377214707448   0.0   -8.273429378856082e-05
4.9503452814381575e-05   -1.2502958052629563e-05   1.6824595470288936e-05
4.9503452814381575e-05   -1.2502958052629563e-05   1.6824595470288936e-05
4.9503452814381575e-05   -1.2502958052629563e-05   1.6824595470288936e-05
4.9503452814381575e-05   -1.2502958052629563e-05   1.6824595470288936e-05
7.708118772025568e-05   -6.585386427096883e-06   -3.26888390148208e-05
7.708118772025568e-05   -6.585386427096883e-06   -3.26888390148208e-05
7.708118772025568e-05   -6.585386427096883e-06   -3.26888390148208e-05
7.708118772025568e-05   -6.585386427096883e-06   -3.26888390148208e-05
4.9503452814381535e-05   0.0   -7.523251895698302e-05
4.9503452814381535e-05   0.0   -7.523251895698302e-05
4.9503452814381535e-05   0.0   -7.523251895698302e-05
4.9503452814381535e-05   0.0   -7.523251895698302e-05
0.00010473772147074443   -1.2502958052629508e-05   9.322820638711177e-06
0.00010473772147074443   -1.2502958052629508e-05   9.322820638711177e-06
0.00010473772147074443   -1.2502958052629508e-05   9.322820638711177e-06
0.00010473772147074443   -1.2502958052629508e-05   9.322820638711177e-06
0.00010159960908629834   0.0   -8.101411670467774e-05
0.00010159960908629834   0.0   -8.101411670467774e-05
0.00010159960908629834   0.0   -8.101411670467774e-05
0.00010159960908629834   0.0   -8.101411670467774e-05
4.928360612748329e-05   -1.1426591350143395e-05   1.303517637010003e-05
4.928360612748329e-05   -1.1426591350143395e-05   1.303517637010003e-05
4.928360612748329e-05   -1.1426591350143395e-05   1.303517637010003e-05
4.928360612748329e-05   -1.1426591350143395e-05   1.303517637010003e-05
7.555153095033991e-05   -4.817998123078876e-06   -3.470985427089972e-05
7.555153095033991e-05   -4.817998123078876e-06   -3.470985427089972e-05
7.555153095033991e-05   -4.817998123078876e-06   -3.470985427089972e-05
7.555153095033991e-05   -4.817998123078876e-06   -3.470985427089972e-05
4.928360612748329e-05   0.0   -7.41581618945917e-05
4.928360612748329e-05   0.0   -7.41581618945917e-05
4.928360612748329e-05   0.0   -7.41581618945917e-05
4.928360612748329e-05   0.0   -7.41581618945917e-05
0.00010159960908629799   -1.1426591350143341e-05   6.1792215600139705e-06
0.00010159960908629799   -1.1426591350143341e-05   6.1792215600139705e-06
0.00010159960908629799   -1.1426591350143341e-05   6.1792215600139705e-06
0.00010159960908629799   -1.1426591350143341e-05   6.1792215600139705e-06
9.69333155667554e-05   0.0   -7.661110353883411e-05
9.69333155667554e-05   0.0   -7.661110353883411e-05
9.69333155667554e-05   0.0   -7.661110353883411e-05
9.69333155667554e-05   0.0   -7.661110353883411e-05
5.0230557136314675e-05   -8.886663210727421e-06   6.55882510500369e-06
5.0230557136314675e-05   -8.886663210727421e-06   6.55882510500369e-06
5.0230557136314675e-05   -8.886663210727421e-06   6.55882510500369e-06
5.0230557136314675e-05   -8.886663210727421e-06   6.55882510500369e-06
7.310846084711944e-05   -2.0441180368687816e-06   -3.567654151731939e-05
7.310846084711944e-05   -2.0441180368687816e-06   -3.567654151731939e-05
7.310846084711944e-05   -2.0441180368687816e-06   -3.567654151731939e-05
7.310846084711944e-05   -2.0441180368687816e-06   -3.567654151731939e-05
-0.00010909722178394673   1.393286089294954e-05   -7.152449729581529e-05
-0.00010909722178394673   1.393286089294954e-05   -7.152449729581529e-05
-0.00010909722178394673   1.393286089294954e-05   -7.152449729581529e-05
-0.00010909722178394673   1.393286089294954e-05   -7.152449729581529e-05
-6.987013748204272e-05   1.2533449570725655e-05   -6.985670252642926e-06