<?xml version="1.0"?> 
<VTKFile type="UnstructuredGrid"> 
   <UnstructuredGrid> 
      <Piece NumberOfPoints="6000"  NumberOfCells="1500">  
          <Points>  
             <DataArray type="Float64" NumberOfComponents="3" format="ascii">   
-500.0   0.0   0.0
-450.0   0.0   0.0
-500.0   30.0   0.0
-500.0   0.0   16.666666666666668
-450.0   0.0   0.0
-450.0   30.0   0.0
-500.0   30.0   0.0
-450.0   30.0   16.666666666666668
-500.0   0.0   16.666666666666668
-500.0   30.0   16.666666666666668
-450.0   30.0   16.666666666666668
-500.0   30.0   0.0
-500.0   0.0   16.666666666666668
-450.0   30.0   16.666666666666668
-450.0   0.0   16.666666666666668
-450.0   0.0   0.0
-500.0   0.0   16.666666666666668
-450.0   30.0   16.666666666666668
-450.0   0.0   0.0
-500.0   30.0   0.0
-500.0   0.0   16.666666666666668
-450.0   0.0   16.666666666666668
-500.0   30.0   16.666666666666668
-500.0   0.0   33.333333333333336
-450.0   0.0   16.666666666666668
-450.0   30.0   16.666666666666668
-500.0   30.0   16.666666666666668
-450.0   30.0   33.333333333333336
-500.0   0.0   33.333333333333336
-500.0   30.0   33.333333333333336
-450.0   30.0   33.333333333333336
-500.0   30.0   16.666666666666668
-500.0   0.0   33.333333333333336
-450.0   30.0   33.333333333333336
-450.0   0.0   33.333333333333336
-450.0   0.0   16.666666666666668
-500.0   0.0   33.333333333333336
-450.0   30.0   33.333333333333336
-450.0   0.0   16.666666666666668
-500.0   30.0   16.666666666666668
-500.0   0.0   33.333333333333336
-450.0   0.0   33.333333333333336
-500.0   30.0   33.333333333333336
-500.0   0.0   50.0
-450.0   0.0   33.333333333333336
-450.0   30.0   33.333333333333336
-500.0   30.0   33.333333333333336
-450.0   30.0   50.0
-500.0   0.0   50.0
-500.0   30.0   50.0
-450.0   30.0   50.0
-500.0   30.0   33.333333333333336
-500.0   0.0   50.0
-450.0   30.0   50.0
-450.0   0.0   50.0
-450.0   0.0   33.333333333333336
-500.0   0.0   50.0
-450.0   30.0   50.0
-450.0   0.0   33.333333333333336
-500.0   30.0   33.333333333333336
-500.0   30.0   0.0
-450.0   30.0   0.0
-500.0   60.0   0.0
-500.0   30.0   16.666666666666668
-450.0   30.0   0.0
-450.0   60.0   0.0
-500.0   60.0   0.0
-450.0   60.0   16.666666666666668
-500.0   30.0   16.666666666666668
-500.0   60.0   16.666666666666668
-450.0   60.0   16.666666666666668
-500.0   60.0   0.0
-500.0   30.0   16.666666666666668
-450.0   60.0   16.666666666666668
-450.0   30.0   16.666666666666668
-450.0   30.0   0.0
-500.0   30.0   16.666666666666668
-450.0   60.0   16.666666666666668
-450.0   30.0   0.0
-500.0   60.0   0.0
-500.0   30.0   16.666666666666668
-450.0   30.0   16.666666666666668
-500.0   60.0   16.666666666666668
-500.0   30.0   33.333333333333336
-450.0   30.0   16.666666666666668
-450.0   60.0   16.666666666666668
-500.0   60.0   16.666666666666668
-450.0   60.0   33.333333333333336
-500.0   30.0   33.333333333333336
-500.0   60.0   33.333333333333336
-450.0   60.0   33.333333333333336
-500.0   60.0   16.666666666666668
-500.0   30.0   33.333333333333336
-450.0   60.0   33.333333333333336
-450.0   30.0   33.333333333333336
-450.0   30.0   16.666666666666668
-500.0   30.0   33.333333333333336
-450.0   60.0   33.333333333333336
-450.0   30.0   16.666666666666668
-500.0   60.0   16.666666666666668
-500.0   30.0   33.333333333333336
-450.0   30.0   33.333333333333336
-500.0   60.0   33.333333333333336
-500.0   30.0   50.0
-450.0   30.0   33.333333333333336
-450.0   60.0   33.333333333333336
-500.0   60.0   33.333333333333336
-450.0   60.0   50.0
-500.0   30.0   50.0
-500.0   60.0   50.0
-450.0   60.0   50.0
-500.0   60.0   33.333333333333336
-500.0   30.0   50.0
-450.0   60.0   50.0
-450.0   30.0   50.0
-450.0   30.0   33.333333333333336
-500.0   30.0   50.0
-450.0   60.0   50.0
-450.0   30.0   33.333333333333336
-500.0   60.0   33.333333333333336
-500.0   60.0   0.0
-450.0   60.0   0.0
-500.0   90.0   0.0
-500.0   60.0   16.666666666666668
-450.0   60.0   0.0
-450.0   90.0   0.0
-500.0   90.0   0.0
-450.0   90.0   16.666666666666668
-500.0   60.0   16.666666666666668
-500.0   90.0   16.666666666666668
-450.0   90.0   16.666666666666668
-500.0   90.0   0.0
-500.0   60.0   16.666666666666668
-450.0   90.0   16.666666666666668
-450.0   60.0   16.666666666666668
-450.0   60.0   0.0
-500.0   60.0   16.666666666666668
-450.0   90.0   16.666666666666668
-450.0   60.0   0.0
-500.0   90.0   0.0
-500.0   60.0   16.666666666666668
-450.0   60.0   16.666666666666668
-500.0   90.0   16.666666666666668
-500.0   60.0   33.333333333333336
-450.0   60.0   16.666666666666668
-450.0   90.0   16.666666666666668
-500.0   90.0   16.666666666666668
-450.0   90.0   33.333333333333336
-500.0   60.0   33.333333333333336
-500.0   90.0   33.333333333333336
-450.0   90.0   33.333333333333336
-500.0   90.0   16.666666666666668
-500.0   60.0   33.333333333333336
-450.0   90.0   33.333333333333336
-450.0   60.0   33.333333333333336
-450.0   60.0   16.666666666666668
-500.0   60.0   33.333333333333336
-450.0   90.0   33.333333333333336
-450.0   60.0   16.666666666666668
-500.0   90.0   16.666666666666668
-500.0   60.0   33.333333333333336
-450.0   60.0   33.333333333333336
-500.0   90.0   33.333333333333336
-500.0   60.0   50.0
-450.0   60.0   33.333333333333336
-450.0   90.0   33.333333333333336
-500.0   90.0   33.333333333333336
-450.0   90.0   50.0
-500.0   60.0   50.0
-500.0   90.0   50.0
-450.0   90.0   50.0
-500.0   90.0   33.333333333333336
-500.0   60.0   50.0
-450.0   90.0   50.0
-450.0   60.0   50.0
-450.0   60.0   33.333333333333336
-500.0   60.0   50.0
-450.0   90.0   50.0
-450.0   60.0   33.333333333333336
-500.0   90.0   33.333333333333336
-500.0   90.0   0.0
-450.0   90.0   0.0
-500.0   120.0   0.0
-500.0   90.0   16.666666666666668
-450.0   90.0   0.0
-450.0   120.0   0.0
-500.0   120.0   0.0
-450.0   120.0   16.666666666666668
-500.0   90.0   16.666666666666668
-500.0   120.0   16.666666666666668
-450.0   120.0   16.666666666666668
-500.0   120.0   0.0
-500.0   90.0   16.666666666666668
-450.0   120.0   16.666666666666668
-450.0   90.0   16.666666666666668
-450.0   90.0   0.0
-500.0   90.0   16.666666666666668
-450.0   120.0   16.666666666666668
-450.0   90.0   0.0
-500.0   120.0   0.0
-500.0   90.0   16.666666666666668
-450.0   90.0   16.666666666666668
-500.0   120.0   16.666666666666668
-500.0   90.0   33.333333333333336
-450.0   90.0   16.666666666666668
-450.0   120.0   16.666666666666668
-500.0   120.0   16.666666666666668
-450.0   120.0   33.333333333333336
-500.0   90.0   33.333333333333336
-500.0   120.0   33.333333333333336
-450.0   120.0   33.333333333333336
-500.0   120.0   16.666666666666668
-500.0   90.0   33.333333333333336
-450.0   120.0   33.333333333333336
-450.0   90.0   33.333333333333336
-450.0   90.0   16.666666666666668
-500.0   90.0   33.333333333333336
-450.0   120.0   33.333333333333336
-450.0   90.0   16.666666666666668
-500.0   120.0   16.666666666666668
-500.0   90.0   33.333333333333336
-450.0   90.0   33.333333333333336
-500.0   120.0   33.333333333333336
-500.0   90.0   50.0
-450.0   90.0   33.333333333333336
-450.0   120.0   33.333333333333336
-500.0   120.0   33.333333333333336
-450.0   120.0   50.0
-500.0   90.0   50.0
-500.0   120.0   50.0
-450.0   120.0   50.0
-500.0   120.0   33.333333333333336
-500.0   90.0   50.0
-450.0   120.0   50.0
-450.0   90.0   50.0
-450.0   90.0   33.333333333333336
-500.0   90.0   50.0
-450.0   120.0   50.0
-450.0   90.0   33.333333333333336
-500.0   120.0   33.333333333333336
-500.0   120.0   0.0
-450.0   120.0   0.0
-500.0   150.0   0.0
-500.0   120.0   16.666666666666668
-450.0   120.0   0.0
-450.0   150.0   0.0
-500.0   150.0   0.0
-450.0   150.0   16.666666666666668
-500.0   120.0   16.666666666666668
-500.0   150.0   16.666666666666668
-450.0   150.0   16.666666666666668
-500.0   150.0   0.0
-500.0   120.0   16.666666666666668
-450.0   150.0   16.666666666666668
-450.0   120.0   16.666666666666668
-450.0   120.0   0.0
-500.0   120.0   16.666666666666668
-450.0   150.0   16.666666666666668
-450.0   120.0   0.0
-500.0   150.0   0.0
-500.0   120.0   16.666666666666668
-450.0   120.0   16.666666666666668
-500.0   150.0   16.666666666666668
-500.0   120.0   33.333333333333336
-450.0   120.0   16.666666666666668
-450.0   150.0   16.666666666666668
-500.0   150.0   16.666666666666668
-450.0   150.0   33.333333333333336
-500.0   120.0   33.333333333333336
-500.0   150.0   33.333333333333336
-450.0   150.0   33.333333333333336
-500.0   150.0   16.666666666666668
-500.0   120.0   33.333333333333336
-450.0   150.0   33.333333333333336
-450.0   120.0   33.333333333333336
-450.0   120.0   16.666666666666668
-500.0   120.0   33.333333333333336
-450.0   150.0   33.333333333333336
-450.0   120.0   16.666666666666668
-500.0   150.0   16.666666666666668
-500.0   120.0   33.333333333333336
-450.0   120.0   33.333333333333336
-500.0   150.0   33.333333333333336
-500.0   120.0   50.0
-450.0   120.0   33.333333333333336
-450.0   150.0   33.333333333333336
-500.0   150.0   33.333333333333336
-450.0   150.0   50.0
-500.0   120.0   50.0
-500.0   150.0   50.0
-450.0   150.0   50.0
-500.0   150.0   33.333333333333336
-500.0   120.0   50.0
-450.0   150.0   50.0
-450.0   120.0   50.0
-450.0   120.0   33.333333333333336
-500.0   120.0   50.0
-450.0   150.0   50.0
-450.0   120.0   33.333333333333336
-500.0   150.0   33.333333333333336
-450.0   0.0   0.0
-400.0   0.0   0.0
-450.0   30.0   0.0
-450.0   0.0   16.666666666666668
-400.0   0.0   0.0
-400.0   30.0   0.0
-450.0   30.0   0.0
-400.0   30.0   16.666666666666668
-450.0   0.0   16.666666666666668
-450.0   30.0   16.666666666666668
-400.0   30.0   16.666666666666668
-450.0   30.0   0.0
-450.0   0.0   16.666666666666668
-400.0   30.0   16.666666666666668
-400.0   0.0   16.666666666666668
-400.0   0.0   0.0
-450.0   0.0   16.666666666666668
-400.0   30.0   16.666666666666668
-400.0   0.0   0.0
-450.0   30.0   0.0
-450.0   0.0   16.666666666666668
-400.0   0.0   16.666666666666668
-450.0   30.0   16.666666666666668
[...]
          <PointData>  
             <DataArray type="Float64" NumberOfComponents="3" Name="Strains" format="ascii">   
-7.55975179459729e-05   0.0   -4.9667250200050894e-05
-7.55975179459729e-05   0.0   -4.9667250200050894e-05
-7.55975179459729e-05   0.0   -4.9667250200050894e-05
-7.55975179459729e-05   0.0   -4.9667250200050894e-05
-4.8098975547871196e-05   8.367793695234749e-06   1.1843300139260249e-06
-4.8098975547871196e-05   8.367793695234749e-06   1.1843300139260249e-06
-4.8098975547871196e-05   8.367793695234749e-06   1.1843300139260249e-06
-4.8098975547871196e-05   8.367793695234749e-06   1.1843300139260249e-06
-4.71442809267322e-05   0.0   -4.688299571180971e-05
-4.71442809267322e-05   0.0   -4.688299571180971e-05
-4.71442809267322e-05   0.0   -4.688299571180971e-05
-4.71442809267322e-05   0.0   -4.688299571180971e-05
-7.91121108639183e-05   1.0045100136217802e-05   3.696607684366667e-07
-7.91121108639183e-05   1.0045100136217802e-05   3.696607684366667e-07
-7.91121108639183e-05   1.0045100136217802e-05   3.696607684366667e-07
-7.91121108639183e-05   1.0045100136217802e-05   3.696607684366667e-07
-6.137089943635245e-05   2.3202120735343163e-06   -2.456409210656298e-05
-6.137089943635245e-05   2.3202120735343163e-06   -2.456409210656298e-05
-6.137089943635245e-05   2.3202120735343163e-06   -2.456409210656298e-05
-6.137089943635245e-05   2.3202120735343163e-06   -2.456409210656298e-05
-7.911211086391844e-05   0.0   -5.291005579354041e-05
-7.911211086391844e-05   0.0   -5.291005579354041e-05
-7.911211086391844e-05   0.0   -5.291005579354041e-05
-7.911211086391844e-05   0.0   -5.291005579354041e-05
-4.71442809267322e-05   1.004510013621783e-05   6.396720850167356e-06
-4.71442809267322e-05   1.004510013621783e-05   6.396720850167356e-06
-4.71442809267322e-05   1.004510013621783e-05   6.396720850167356e-06
-4.71442809267322e-05   1.004510013621783e-05   6.396720850167356e-06
-4.727350281216336e-05   0.0   -4.802952184765884e-05
-4.727350281216336e-05   0.0   -4.802952184765884e-05
-4.727350281216336e-05   0.0   -4.802952184765884e-05
-4.727350281216336e-05   0.0   -4.802952184765884e-05
-8.15786611359831e-05   1.0762715138609873e-05   2.6881129422083594e-06
-8.15786611359831e-05   1.0762715138609873e-05   2.6881129422083594e-06
-8.15786611359831e-05   1.0762715138609873e-05   2.6881129422083594e-06
-8.15786611359831e-05   1.0762715138609873e-05   2.6881129422083594e-06
-6.319280683804078e-05   4.067111621567973e-06   -2.393761544413699e-05
-6.319280683804078e-05   4.067111621567973e-06   -2.393761544413699e-05
-6.319280683804078e-05   4.067111621567973e-06   -2.393761544413699e-05
-6.319280683804078e-05   4.067111621567973e-06   -2.393761544413699e-05
-8.157866113598324e-05   0.0   -5.448715093082477e-05
-8.157866113598324e-05   0.0   -5.448715093082477e-05
-8.157866113598324e-05   0.0   -5.448715093082477e-05
-8.157866113598324e-05   0.0   -5.448715093082477e-05
-4.727350281216336e-05   1.0762715138609887e-05   9.1457420253743e-06
-4.727350281216336e-05   1.0762715138609887e-05   9.1457420253743e-06
-4.727350281216336e-05   1.0762715138609887e-05   9.1457420253743e-06
-4.727350281216336e-05   1.0762715138609887e-05   9.1457420253743e-06
-4.7244446310249206e-05   0.0   -4.832472204489137e-05
-4.7244446310249206e-05   0.0   -4.832472204489137e-05
-4.7244446310249206e-05   0.0   -4.832472204489137e-05
-4.7244446310249206e-05   0.0   -4.832472204489137e-05
-8.689599485992511e-05   1.2263762306799933e-05   1.0402934820488745e-05
-8.689599485992511e-05   1.2263762306799933e-05   1.0402934820488745e-05
-8.689599485992511e-05   1.2263762306799933e-05   1.0402934820488745e-05
-8.689599485992511e-05   1.2263762306799933e-05   1.0402934820488745e-05
-6.441155372311611e-05   5.135357404944491e-06   -2.2794090799746308e-05
-6.441155372311611e-05   5.135357404944491e-06   -2.2794090799746308e-05
-6.441155372311611e-05   5.135357404944491e-06   -2.2794090799746308e-05
-6.441155372311611e-05   5.135357404944491e-06   -2.2794090799746308e-05
-4.809897554787128e-05   0.0   -4.464657398291004e-05
-4.809897554787128e-05   0.0   -4.464657398291004e-05
-4.809897554787128e-05   0.0   -4.464657398291004e-05
-4.809897554787128e-05   0.0   -4.464657398291004e-05
-2.1908850886840385e-05   3.0676345000517184e-06   8.442144855057865e-07
-2.1908850886840385e-05   3.0676345000517184e-06   8.442144855057865e-07
-2.1908850886840385e-05   3.0676345000517184e-06   8.442144855057865e-07
-2.1908850886840385e-05   3.0676345000517184e-06   8.442144855057865e-07
-2.1067984187189397e-05   0.0   -4.42612029423528e-05
-2.1067984187189397e-05   0.0   -4.42612029423528e-05
-2.1067984187189397e-05   0.0   -4.42612029423528e-05
-2.1067984187189397e-05   0.0   -4.42612029423528e-05
-4.71442809267322e-05   4.3696546157615115e-06   -3.422501145905043e-06
-4.71442809267322e-05   4.3696546157615115e-06   -3.422501145905043e-06
-4.71442809267322e-05   4.3696546157615115e-06   -3.422501145905043e-06
-4.71442809267322e-05   4.3696546157615115e-06   -3.422501145905043e-06
-3.458347986753028e-05   3.211425337977045e-07   -2.192806232872979e-05
-3.458347986753028e-05   3.211425337977045e-07   -2.192806232872979e-05
-3.458347986753028e-05   3.211425337977045e-07   -2.192806232872979e-05
-3.458347986753028e-05   3.211425337977045e-07   -2.192806232872979e-05
-4.714428092673216e-05   0.0   -4.688299571180967e-05
-4.714428092673216e-05   0.0   -4.688299571180967e-05
-4.714428092673216e-05   0.0   -4.688299571180967e-05
-4.714428092673216e-05   0.0   -4.688299571180967e-05
-2.1067984187189397e-05   4.3696546157615115e-06   -8.00708376448136e-07
-2.1067984187189397e-05   4.3696546157615115e-06   -8.00708376448136e-07
-2.1067984187189397e-05   4.3696546157615115e-06   -8.00708376448136e-07
-2.1067984187189397e-05   4.3696546157615115e-06   -8.00708376448136e-07
-2.0594201467593127e-05   0.0   -4.4816028391267425e-05
-2.0594201467593127e-05   0.0   -4.4816028391267425e-05
-2.0594201467593127e-05   0.0   -4.4816028391267425e-05
-2.0594201467593127e-05   0.0   -4.4816028391267425e-05
-4.727350281216336e-05   5.355822427319015e-06   -3.5640196067084773e-06
-4.727350281216336e-05   5.355822427319015e-06   -3.5640196067084773e-06
-4.727350281216336e-05   5.355822427319015e-06   -3.5640196067084773e-06
-4.727350281216336e-05   5.355822427319015e-06   -3.5640196067084773e-06
-3.3869241197162595e-05   1.7224727671185728e-06   -2.3724445835589264e-05
-3.3869241197162595e-05   1.7224727671185728e-06   -2.3724445835589264e-05
-3.3869241197162595e-05   1.7224727671185728e-06   -2.3724445835589264e-05
-3.3869241197162595e-05   1.7224727671185728e-06   -2.3724445835589264e-05
-4.727350281216336e-05   0.0   -4.802952184765884e-05
-4.727350281216336e-05   0.0   -4.802952184765884e-05
-4.727350281216336e-05   0.0   -4.802952184765884e-05
-4.727350281216336e-05   0.0   -4.802952184765884e-05
-2.0594201467593127e-05   5.355822427319015e-06   -3.5052615031705593e-07
-2.0594201467593127e-05   5.355822427319015e-06   -3.5052615031705593e-07
-2.0594201467593127e-05   5.355822427319015e-06   -3.5052615031705593e-07
-2.0594201467593127e-05   5.355822427319015e-06   -3.5052615031705593e-07
-2.0162168465862856e-05   0.0   -4.4584916035511915e-05
-2.0162168465862856e-05   0.0   -4.4584916035511915e-05
-2.0162168465862856e-05   0.0   -4.4584916035511915e-05
-2.0162168465862856e-05   0.0   -4.4584916035511915e-05
-4.7244446310249084e-05   6.2330100156323456e-06   -3.1875923042474325e-06
-4.7244446310249084e-05   6.2330100156323456e-06   -3.1875923042474325e-06
-4.7244446310249084e-05   6.2330100156323456e-06   -3.1875923042474325e-06
-4.7244446310249084e-05   6.2330100156323456e-06   -3.1875923042474325e-06
-3.3717835639013094e-05   2.8705048434557408e-06   -2.3714440319668293e-05
-3.3717835639013094e-05   2.8705048434557408e-06   -2.3714440319668293e-05
-3.3717835639013094e-05   2.8705048434557408e-06   -2.3714440319668293e-05
-3.3717835639013094e-05   2.8705048434557408e-06   -2.3714440319668293e-05
-2.1908850886840426e-05   0.0   -4.280599328287901e-05
-2.1908850886840426e-05   0.0   -4.280599328287901e-05
-2.1908850886840426e-05   0.0   -4.280599328287901e-05
-2.1908850886840426e-05   0.0   -4.280599328287901e-05
2.8327063272859276e-06   -3.940200081490377e-07   -1.806476597557806e-06
2.8327063272859276e-06   -3.940200081490377e-07   -1.806476597557806e-06
2.8327063272859276e-06   -3.940200081490377e-07   -1.806476597557806e-06
2.8327063272859276e-06   -3.940200081490377e-07   -1.806476597557806e-06
3.37116076188169e-06   0.0   -4.379613021914075e-05
3.37116076188169e-06   0.0   -4.379613021914075e-05
3.37116076188169e-06   0.0   -4.379613021914075e-05
3.37116076188169e-06   0.0   -4.379613021914075e-05
-2.106798418718936e-05   7.751212053531731e-07   -3.529294693900968e-06
-2.106798418718936e-05   7.751212053531731e-07   -3.529294693900968e-06
-2.106798418718936e-05   7.751212053531731e-07   -3.529294693900968e-06
-2.106798418718936e-05   7.751212053531731e-07   -3.529294693900968e-06
-9.268845062479329e-06   -8.251141135515682e-07   -2.223438537707476e-05
-9.268845062479329e-06   -8.251141135515682e-07   -2.223438537707476e-05
-9.268845062479329e-06   -8.251141135515682e-07   -2.223438537707476e-05
-9.268845062479329e-06   -8.251141135515682e-07   -2.223438537707476e-05
-2.1067984187189397e-05   0.0   -4.42612029423528e-05
-2.1067984187189397e-05   0.0   -4.42612029423528e-05
-2.1067984187189397e-05   0.0   -4.42612029423528e-05
-2.1067984187189397e-05   0.0   -4.42612029423528e-05
3.371160761881696e-06   7.751212053531731e-07   -3.0642219706890665e-06
3.371160761881696e-06   7.751212053531731e-07   -3.0642219706890665e-06
3.371160761881696e-06   7.751212053531731e-07   -3.0642219706890665e-06
3.371160761881696e-06   7.751212053531731e-07   -3.0642219706890665e-06
3.796636583590442e-06   0.0   -4.373318655434421e-05
3.796636583590442e-06   0.0   -4.373318655434421e-05
3.796636583590442e-06   0.0   -4.373318655434421e-05
3.796636583590442e-06   0.0   -4.373318655434421e-05
-2.0594201467593056e-05   1.8047363948718912e-06   -4.164631639294799e-06
-2.0594201467593056e-05   1.8047363948718912e-06   -4.164631639294799e-06
-2.0594201467593056e-05   1.8047363948718912e-06   -4.164631639294799e-06
-2.0594201467593056e-05   1.8047363948718912e-06   -4.164631639294799e-06
-8.635673801799459e-06   4.400136566737626e-07   -2.3276677439365284e-05
-8.635673801799459e-06   4.400136566737626e-07   -2.3276677439365284e-05
-8.635673801799459e-06   4.400136566737626e-07   -2.3276677439365284e-05
-8.635673801799459e-06   4.400136566737626e-07   -2.3276677439365284e-05
-2.0594201467593127e-05   0.0   -4.4816028391267425e-05
-2.0594201467593127e-05   0.0   -4.4816028391267425e-05
-2.0594201467593127e-05   0.0   -4.4816028391267425e-05
-2.0594201467593127e-05   0.0   -4.4816028391267425e-05
3.796636583590449e-06   1.8047363948719047e-06   -3.0817898023716644e-06
3.796636583590449e-06   1.8047363948719047e-06   -3.0817898023716644e-06
3.796636583590449e-06   1.8047363948719047e-06   -3.0817898023716644e-06
3.796636583590449e-06   1.8047363948719047e-06   -3.0817898023716644e-06
4.367877033092692e-06   0.0   -4.278667330203484e-05
4.367877033092692e-06   0.0   -4.278667330203484e-05
4.367877033092692e-06   0.0   -4.278667330203484e-05
4.367877033092692e-06   0.0   -4.278667330203484e-05
-2.0162168465862802e-05   2.997071222461724e-06   -3.701506870585994e-06
-2.0162168465862802e-05   2.997071222461724e-06   -3.701506870585994e-06
-2.0162168465862802e-05   2.997071222461724e-06   -3.701506870585994e-06
-2.0162168465862802e-05   2.997071222461724e-06   -3.701506870585994e-06
-8.113162217250198e-06   1.6911292410270952e-06   -2.299961876274626e-05
-8.113162217250198e-06   1.6911292410270952e-06   -2.299961876274626e-05
-8.113162217250198e-06   1.6911292410270952e-06   -2.299961876274626e-05
-8.113162217250198e-06   1.6911292410270952e-06   -2.299961876274626e-05
2.8327063272859323e-06   0.0   -4.304240528776843e-05
2.8327063272859323e-06   0.0   -4.304240528776843e-05
2.8327063272859323e-06   0.0   -4.304240528776843e-05
2.8327063272859323e-06   0.0   -4.304240528776843e-05
2.9692468548141312e-05   -3.4826429502911977e-06   -3.657206898508223e-07
2.9692468548141312e-05   -3.4826429502911977e-06   -3.657206898508223e-07
2.9692468548141312e-05   -3.4826429502911977e-06   -3.657206898508223e-07
2.9692468548141312e-05   -3.4826429502911977e-06   -3.657206898508223e-07
2.9749502752519855e-05   0.0   -4.537076997999169e-05
2.9749502752519855e-05   0.0   -4.537076997999169e-05
2.9749502752519855e-05   0.0   -4.537076997999169e-05
2.9749502752519855e-05   0.0   -4.537076997999169e-05
3.371160761881702e-06   -2.624399601417989e-06   1.677730985893553e-07
3.371160761881702e-06   -2.624399601417989e-06   1.677730985893553e-07
3.371160761881702e-06   -2.624399601417989e-06   1.677730985893553e-07
3.371160761881702e-06   -2.624399601417989e-06   1.677730985893553e-07
1.6291104539902895e-05   -1.9403039101860507e-06   -2.1775923946185112e-05
1.6291104539902895e-05   -1.9403039101860507e-06   -2.1775923946185112e-05
1.6291104539902895e-05   -1.9403039101860507e-06   -2.1775923946185112e-05
1.6291104539902895e-05   -1.9403039101860507e-06   -2.1775923946185112e-05
3.371160761881702e-06   0.0   -4.3796130219140896e-05
3.371160761881702e-06   0.0   -4.3796130219140896e-05
3.371160761881702e-06   0.0   -4.3796130219140896e-05
3.371160761881702e-06   0.0   -4.3796130219140896e-05
2.9749502752519855e-05   -2.624399601417989e-06   -1.4068666622614397e-06
2.9749502752519855e-05   -2.624399601417989e-06   -1.4068666622614397e-06
2.9749502752519855e-05   -2.624399601417989e-06   -1.4068666622614397e-06
2.9749502752519855e-05   -2.624399601417989e-06   -1.4068666622614397e-06
2.96257404508079e-05   0.0   -4.472292286245288e-05
2.96257404508079e-05   0.0   -4.472292286245288e-05
2.96257404508079e-05   0.0   -4.472292286245288e-05
2.96257404508079e-05   0.0   -4.472292286245288e-05
3.796636583590449e-06   -1.64956051351433e-06   -6.846801089818719e-07
3.796636583590449e-06   -1.64956051351433e-06   -6.846801089818719e-07
3.796636583590449e-06   -1.64956051351433e-06   -6.846801089818719e-07
3.796636583590449e-06   -1.64956051351433e-06   -6.846801089818719e-07
1.6498450606344803e-05   -7.723272027599889e-07   -2.2380710133358376e-05
1.6498450606344803e-05   -7.723272027599889e-07   -2.2380710133358376e-05
1.6498450606344803e-05   -7.723272027599889e-07   -2.2380710133358376e-05
1.6498450606344803e-05   -7.723272027599889e-07   -2.2380710133358376e-05
3.7966365835904455e-06   0.0   -4.373318655434425e-05
3.7966365835904455e-06   0.0   -4.373318655434425e-05
3.7966365835904455e-06   0.0   -4.373318655434425e-05
3.7966365835904455e-06   0.0   -4.373318655434425e-05
2.96257404508079e-05   -1.64956051351433e-06   -1.674416417090471e-06
2.96257404508079e-05   -1.64956051351433e-06   -1.674416417090471e-06
2.96257404508079e-05   -1.64956051351433e-06   -1.674416417090471e-06
2.96257404508079e-05   -1.64956051351433e-06   -1.674416417090471e-06
3.0203009547991526e-05   0.0   -4.299056344119603e-05
3.0203009547991526e-05   0.0   -4.299056344119603e-05
3.0203009547991526e-05   0.0   -4.299056344119603e-05
3.0203009547991526e-05   0.0   -4.299056344119603e-05
4.3678770330926994e-06   -3.398168986018616e-07   2.718808894631224e-07
4.3678770330926994e-06   -3.398168986018616e-07   2.718808894631224e-07
4.3678770330926994e-06   -3.398168986018616e-07   2.718808894631224e-07
4.3678770330926994e-06   -3.398168986018616e-07   2.718808894631224e-07
1.6999823065790972e-05   6.188525942902052e-07   -2.1356564194102563e-05
1.6999823065790972e-05   6.188525942902052e-07   -2.1356564194102563e-05
1.6999823065790972e-05   6.188525942902052e-07   -2.1356564194102563e-05
1.6999823065790972e-05   6.188525942902052e-07   -2.1356564194102563e-05
2.9692468548141312e-05   0.0   -4.5131991057943155e-05
2.9692468548141312e-05   0.0   -4.5131991057943155e-05
2.9692468548141312e-05   0.0   -4.5131991057943155e-05
2.9692468548141312e-05   0.0   -4.5131991057943155e-05
6.705738513660035e-05   -8.83133352278259e-06   1.1844069809152725e-05
6.705738513660035e-05   -8.83133352278259e-06   1.1844069809152725e-05
6.705738513660035e-05   -8.83133352278259e-06   1.1844069809152725e-05
6.705738513660035e-05   -8.83133352278259e-06   1.1844069809152725e-05
6.298320852315664e-05   0.0   -4.9877863288270646e-05
6.298320852315664e-05   0.0   -4.9877863288270646e-05
6.298320852315664e-05   0.0   -4.9877863288270646e-05
6.298320852315664e-05   0.0   -4.9877863288270646e-05
2.9749502752519855e-05   -7.511822180464921e-06   1.001873963773629e-05
2.9749502752519855e-05   -7.511822180464921e-06   1.001873963773629e-05
2.9749502752519855e-05   -7.511822180464921e-06   1.001873963773629e-05
2.9749502752519855e-05   -7.511822180464921e-06   1.001873963773629e-05
4.633783853564898e-05   -3.954893525272919e-06   -1.97626438605941e-05
4.633783853564898e-05   -3.954893525272919e-06   -1.97626438605941e-05
4.633783853564898e-05   -3.954893525272919e-06   -1.97626438605941e-05
4.633783853564898e-05   -3.954893525272919e-06   -1.97626438605941e-05
2.974950275251983e-05   0.0   -4.537076997999165e-05
2.974950275251983e-05   0.0   -4.537076997999165e-05
2.974950275251983e-05   0.0   -4.537076997999165e-05
2.974950275251983e-05   0.0   -4.537076997999165e-05
6.298320852315643e-05   -7.511822180464908e-06   5.511646329457303e-06
6.298320852315643e-05   -7.511822180464908e-06   5.511646329457303e-06
6.298320852315643e-05   -7.511822180464908e-06   5.511646329457303e-06
6.298320852315643e-05   -7.511822180464908e-06   5.511646329457303e-06
6.110609167844162e-05   0.0   -4.88409152311804e-05
6.110609167844162e-05   0.0   -4.88409152311804e-05
6.110609167844162e-05   0.0   -4.88409152311804e-05
6.110609167844162e-05   0.0   -4.88409152311804e-05
2.96257404508079e-05   -6.863320614545863e-06   7.744329183603308e-06
2.96257404508079e-05   -6.863320614545863e-06   7.744329183603308e-06
2.96257404508079e-05   -6.863320614545863e-06   7.744329183603308e-06
2.96257404508079e-05   -6.863320614545863e-06   7.744329183603308e-06
4.542779721548071e-05   -2.891787709323926e-06   -2.0975351833984542e-05
4.542779721548071e-05   -2.891787709323926e-06   -2.0975351833984542e-05
4.542779721548071e-05   -2.891787709323926e-06   -2.0975351833984542e-05
4.542779721548071e-05   -2.891787709323926e-06   -2.0975351833984542e-05
2.96257404508079e-05   0.0   -4.472292286245288e-05
2.96257404508079e-05   0.0   -4.472292286245288e-05
2.96257404508079e-05   0.0   -4.472292286245288e-05
2.96257404508079e-05   0.0   -4.472292286245288e-05
6.11060916784414e-05   -6.86332061454585e-06   3.626336814875763e-06
6.11060916784414e-05   -6.86332061454585e-06   3.626336814875763e-06
6.11060916784414e-05   -6.86332061454585e-06   3.626336814875763e-06
6.11060916784414e-05   -6.86332061454585e-06   3.626336814875763e-06
5.830904119642666e-05   0.0   -4.618958848646369e-05
5.830904119642666e-05   0.0   -4.618958848646369e-05
5.830904119642666e-05   0.0   -4.618958848646369e-05
5.830904119642666e-05   0.0   -4.618958848646369e-05
3.0203009547991526e-05   -5.331708408779561e-06   3.852822639529355e-06
3.0203009547991526e-05   -5.331708408779561e-06   3.852822639529355e-06
3.0203009547991526e-05   -5.331708408779561e-06   3.852822639529355e-06
3.0203009547991526e-05   -5.331708408779561e-06   3.852822639529355e-06
4.396739082361733e-05   -1.2222213533424103e-06   -2.1553505053109264e-05
4.396739082361733e-05   -1.2222213533424103e-06   -2.1553505053109264e-05
4.396739082361733e-05   -1.2222213533424103e-06   -2.1553505053109264e-05
4.396739082361733e-05   -1.2222213533424103e-06   -2.1553505053109264e-05
-6.55527504341252e-05   8.367793695234735e-06   -4.304596421235078e-05
-6.55527504341252e-05   8.367793695234735e-06   -4.304596421235078e-05
-6.55527504341252e-05   8.367793695234735e-06   -4.304596421235078e-05
-6.55527504341252e-05   8.367793695234735e-06   -4.304596421235078e-05
-4.198949419499206e-05   7.52266176648017e-06   -4.280949637714933e-06